# ODT 1.0
# Table Start
## mmGraph output
# Columns:  Iteration           {Field Updates}     {Sim Time}          {Time Step}         {Step Size}         Bx                  By                  Bz                  B                   {|m x h|}           Mx/Ms               My/Ms               Mz/Ms               {Total Energy}      {Exchange Energy}   {Anisotropy Energy} {Demag Energy}      {Zeeman Energy}     {Max Angle}        
# Units:       {}                     {}                ns                  ns                  {}              mT                  mT                  mT                  mT                     {}                {}                  {}                  {}                     J/m^3                 J/m^3                J/m^3            J/m^3                J/m^3              deg            
            10                  32                  0.003175866602527346  0.0004249123979482449  0.02582405098530459  0                   0                   0                   0                   0.8180177583261414  0.7327644620235415 -0.05107115888403247  0.6780057432433786  576191.3887436013   259.6451506391621   231470.2163268162   344461.527266146    0                   5.674959779038692 
            20                  52                  0.007980684402859135  0.0005687920951445224  0.03456833958240835  0                   0                   0                   0                   0.5733172321369727  0.6306775765173326 -0.7159755637878172  0.2966714784657446  376317.4032991494   402.7954531046316   301020.4857524809   74894.122093564     0                   6.698654315878264 
            30                  72                  0.01540322484301735  0.0007057828999977407  0.04289395574736269  0                   0                   0                   0                   0.5245377804907444  0.7489952010280383 -0.6067091828478145 -0.2599730685663786  279861.1599620826   549.7001682474419   218964.2645911289   60347.19520270627   0                   6.836910048012485 
            40                  92                  0.02131166461711183  0.0005732849982120189  0.03484139576633544  0                   0                   0                   0                   0.6091025101479455  0.9444777696133103  0.09920457672748582 -0.3042699891438472  132592.8973756171   566.6204365677426   53899.22175505706   78127.05518399233   0                   6.040453682386532 
            50                  112                 0.02814664173524139  0.0009399662715350302  0.05712645015254147  0                   0                   0                   0                   0.32303415575758    0.9441270250414489  0.3186582534209054  0.06774999208623458  69819.22381896053   297.0048120054217   54234.79109099632   15287.42791595878   0                   4.900195857556902 
            60                  132                 0.03886813719100209  0.001178749048947019  0.07163847344975505  0                   0                   0                   0                   0.257825586558437   0.9881577394447979 -0.1475856338844483  0.0237231932359577  24036.98028933366   90.73247838449649   11767.82147569679   12178.42633525237   0                   2.701051809578084 
            70                  152                 0.05458154315227002  0.001762471270384135  0.1071141914575958  0                   0                   0                   0                   0.08426562065050716  0.9985501576983411  0.04915173720353933  0.01298588970768999  12966.3199592614    22.20401786611187   1448.38092316215    11495.73501823314   0                   1.586292998410217 
            80                  178                 0.0654159479546863  0.0009831976247480175  0.05975383564406077  0                   0                   0                   0                   0.05453314909610502  0.9996434735616935 -0.02336872535463706  0.001195764410032739  11696.04571776805   16.38118937315142   356.4061309014147   11323.25839749348   0                   1.195748561567102 
            90                  198                 0.0754892812164499  0.0007853182336019549  0.04772771564715881  0                   0                   0                   0                   0.03006622071768295  0.99989474203859    0.007488337924548573 -0.005048981446294806  11425.38275683288   8.643264122468574   105.2411767634734   11311.49831594694   0                   1.038246978690649 
            100                 220                 0.08571992193341992  0.001120284016347486  0.06808526109351848  0                   0                   0                   0                   0.01257462367808321  0.9999425764172085 -0.0003864575885259646  0.003476754343142611  11363.06834211892   7.865022723866875   57.41380567779198   11297.78951371726   0                   0.9811575920593083
            110                 246                 0.0960140962606657  0.000852703576026814  0.05182305983302962  0                   0                   0                   0                   0.006079202864024092  0.9999507241780273 -0.001360562871236944 -0.001522357845836192  11346.89479676583   7.680770924371656   49.26678864169745   11289.94723719976   0                   0.974971419688148 
            120                 270                 0.1059388121322102  0.0009243695843628964  0.05617856148965502  0                   0                   0                   0                   0.004459645299133152  0.9999538528399061  0.001200938125560519  0.0003415286799039998  11342.45628592015   7.400966649480397   46.13896852665069   11288.91635074402   0                   0.9486913387636201
            130                 292                 0.1154640456002732  0.001191724016092694  0.0724270270780335  0                   0                   0                   0                   0.002543890520574566  0.9999545111219458 -0.0005528564847427426  0.0001442269066836054  11341.34469898517   7.384216168575318   45.48088683387341   11288.47959598272   0                   0.9360197602000377
            140                 316                 0.1260264028947881  0.001175455300083213  0.07143829586255726  0                   0                   0                   0                   0.001045158818568442  0.9999547096077789  0.000144764693077238 -0.000144632022600779  11341.03507314445   7.380315355963009   45.28242757936181   11288.37233020912   0                   0.9305873520311303
            150                 342                 0.1367967732637121  0.0006786084215500581  0.04124242681970478  0                   0                   0                   0                   0.0004813874723092849  0.9999548207662342 -5.016347946144127e-06  7.964164921671029e-05  11340.96264485003   7.37688641277746    45.1712901373886    11288.41446829987   0                   0.9312238168717875
            160                 364                 0.1461008702836538  0.0001908230335242045  0.01159726986243353  0                   0                   0                   0                   0.0003781359433312481  0.9999548009809951 -4.48518914704667e-05 -3.014117249913981e-05  11340.94627559571   7.376818168410106   45.1910675500998    11288.3783898772    0                   0.9317956472596474
            170                 384                 0.1498079466307984  0.0005824200619716719  0.03539657926632836  0                   0                   0                   0                   0.0002185065017458069  0.9999548036904364  4.802436502741896e-06 -2.889805320857514e-05  11340.94341556377   7.37670324835735    45.18835938877683   11288.37835292664   0                   0.9309361336760251
            180                 404                 0.1610418967526551  0.00176776034424948  0.1074356349217621  0                   0                   0                   0                   0.0001325772195468079  0.9999548189910726  5.147525246185936e-06  1.212257231441328e-05  11340.94047174289   7.376057898250884   45.17306286659238   11288.39135097805   0                   0.930832683500818 
            190                 428                 0.1722464366917721  0.001644468780812641  0.09994259015388827  0                   0                   0                   0                   7.770204488045581e-05  0.9999548134567184 -4.649896954773681e-06 -4.384236657400131e-06  11340.93984789001   7.376272005785641   45.17859554225674   11288.38498034197   0                   0.9306888925535157
            200                 450                 0.175281515551752   0.0004765596198914546  0.02896291089890315  0                   0                   0                   0                   5.056750891989525e-05  0.9999548136674036  8.006186891340833e-07 -3.834732477843426e-06  11340.9397727532    7.37627176810787    45.17838495030536   11288.38511603478   0                   0.9305901576851316
            210                 470                 0.1844833034466141  0.001441299605758264  0.08759498353995852  0                   0                   0                   0                   3.747207312749846e-05  0.9999548159064341  1.868302650206757e-06  1.564886856117823e-06  11340.93969060369   7.376178738909672   45.17614656458296   11288.3873653002    0                   0.9305719801879161
            220                 494                 0.1962193642933936  0.001266626117889495  0.07697920231473404  0                   0                   0                   0                   1.759134010573059e-05  0.9999548150677096 -8.421512845890169e-07 -5.19635797749495e-07  11340.93966121067   7.376205734101423   45.17698502675865   11288.38647044981   0                   0.930530608541025 
            230                 518                 0.2048849641078514  0.0001599848413099723  0.009723078730613567  0                   0                   0                   0                   7.121012861809358e-06  0.9999548151852695  5.294950454822385e-07 -3.060348024477568e-08  11340.9396552043    7.376206553228466   45.17686751164172   11288.38658113943   0                   0.9304958697326332
            240                 538                 0.2079897289143051  0.000488057060519226  0.02966166785305596  0                   0                   0                   0                   7.678811817763117e-06  0.9999548153197337  3.401022388870592e-07  1.811291402789765e-07  11340.93965438964   7.376200000148188   45.1767330838825    11288.38672130561   0                   0.9305002559155366
            250                 558                 0.217458424075107   0.001470141072337991  0.08934782367134138  0                   0                   0                   0                   3.175824042458134e-06  0.9999548153175555 -1.966941137526497e-07 -1.267907284749417e-08  11340.93965306453   7.376197135255832   45.1767352603394    11288.38672066893   0                   0.9304890388138253
            260                 580                 0.2233907899139097  0.000439610876393209  0.02671735101279727  0                   0                   0                   0                   3.23127315741964e-06  0.9999548152338643  1.111793141279743e-09 -8.010705541566324e-08  11340.9396528158    7.376201598034942   45.17681893037287   11288.38663228739   0                   0.9304905129546541
            270                 600                 0.2318642648020456  0.00131139904192681  0.07970027677310189  0                   0                   0                   0                   1.326767061368521e-06  0.9999548152673258  5.101032349243305e-08  3.326369247939896e-08  11340.93965267188   7.376200880929103   45.17678547890718   11288.38666631204   0                   0.9304878221255566
            280                 624                 0.2431563441026209  0.001012120549761834  0.06151162641177546  0                   0                   0                   0                   6.365557538768707e-07  0.9999548152829993 -2.779133861481377e-08 -1.465065774056398e-08  11340.93965261521   7.376199526801284   45.17676980871408   11288.3866832797    0                   0.9304862163608276
            290                 646                 0.2526678071945503  0.0008993426192132702  0.0546575476826865  0                   0                   0                   0                   4.762478682698946e-07  0.9999548152675614  2.025393649489652e-08  1.236066313205906e-09  11340.93965260459   7.376200483137101   45.17678524141387   11288.38666688003   0                   0.9304856137669201
            300                 668                 0.2620467682796457  0.0003490182715935298  0.02121158545609677  0                   0                   0                   0                   2.592623440460866e-07  0.9999548152768052 -9.003502851448604e-09  4.592322754068073e-09  11340.93965260196   7.376200031954851   45.17677600028398   11288.38667656972   0                   0.9304857658809192
            310                 690                 0.2709739072860592  0.0002161029144308753  0.01313365462453645  0                   0                   0                   0                   1.037130329362462e-07  0.9999548152751242 -3.364495676659739e-10 -4.776874213382438e-09  11340.93965260102   7.376200052508852   45.17677768008176   11288.38667486843   0                   0.9304856600678524
            320                 710                 0.2777056035170847  0.001338052286268441  0.08132012769796448  0                   0                   0                   0                   1.000002138770869e-07  0.9999548152733359  5.217371383738664e-09  6.094189613957965e-10  11340.93965260079   7.376200176493479   45.17677946999617   11288.3866729543    0                   0.9304854998325066
            330                 732                 0.2850529046230758  0.0008284867075963893  0.05035127965417056  0                   0                   0                   0                   4.304534414625111e-08  0.9999548152744377 -1.129584984749735e-09  2.003994017467499e-09  11340.9396526007    7.376200129044356   45.17677836500412   11288.38667410665   0                   0.9304855584656588
            340                 754                 0.2924367773703448  0.0005129771322898821  0.03117618521491759  0                   0                   0                   0                   3.641919038837413e-08  0.9999548152749493 -1.917103249087312e-09 -9.288652320324512e-10  11340.93965260066   7.376200087121743   45.17677785325319   11288.38667466029   0                   0.9304855165326829
            350                 776                 0.3031754680698859  0.0003176219193857565  0.01930347215066935  0                   0                   0                   0                   1.859327055587188e-08  0.9999548152743264  1.224272256000093e-09  1.27323709195434e-10  11340.93965260065   7.376200124185186   45.17677847708816   11288.38667399938   0                   0.9304854982507806
            360                 796                 0.3130695237944517  0.001966631206813384  0.1195220115940834  0                   0                   0                   0                   1.334747560720767e-08  0.9999548152745399 -5.336265045096778e-10  2.358296356938837e-10  11340.93965260065   7.376200113439429   45.17677826447098   11288.38667422273   0                   0.9304854972178405
            370                 818                 0.3175798862501231  0.0008965200728897586  0.05448600742987508  0                   0                   0                   0                   7.236266664758699e-09  0.9999548152745885 -4.794987299843423e-10 -1.711148152166544e-10  11340.93965260064   7.376200109391632   45.17677821686705   11288.38667427438   0                   0.9304854996362598
            380                 840                 0.3249867682131336  0.0004089242963906551  0.02485237411314207  0                   0                   0                   0                   4.102406332671561e-09  0.9999548152745109  2.035229367383498e-10 -1.563764180289096e-10  11340.93965260064   7.376200113618294   45.17677829255991   11288.38667419447   0                   0.9304854983980635
            390                 862                 0.3335043078010119  0.000229793245288655  0.01396568448241801  0                   0                   0                   0                   2.223947081108525e-09  0.9999548152744882  8.489434413455467e-11  1.218720862389004e-10  11340.93965260064   7.376200115845179   45.1767783174326    11288.38667416736   0                   0.9304854975786058
            400                 882                 0.3406624635681315  0.001422819206475262  0.08647183727353404  0                   0                   0                   0                   1.33259926483122e-09  0.9999548152745201 -1.260817826980567e-10  1.319790801067617e-11  11340.93965260064   7.376200113650667   45.17677828453389   11288.38667420246   0                   0.9304854951582279
            410                 904                 0.347186363622242   0.0006010646526267982  0.03652970426339366  0                   0                   0                   0                   1.157176144616996e-09  0.9999548152745218 -2.377033166240144e-11 -5.463078071029298e-11  11340.93965260064   7.376200113541817   45.17677828464932   11288.38667420245   0                   0.9304854953062942
            420                 928                 0.3577750521871721  3.141721316857221e-05  0.001909381130319976  0                   0                   0                   0                   4.865180808132878e-10  0.9999548152745094  3.463133178877619e-11  2.024462674010379e-11  11340.93965260064   7.376200114515633   45.17677829853303   11288.38667418759   0                   0.9304854953764103
            430                 948                 0.3587537115265576  0.0001945271030661535  0.01182238468884548  0                   0                   0                   0                   4.438439035756228e-10  0.9999548152745064  2.544236543301433e-11  2.293776412535957e-11  11340.93965260064   7.37620011448893    45.17677829817643   11288.38667418798   0                   0.9304854951456931
            440                 968                 0.3648133122033526  0.00120446054919866  0.07320108987754859  0                   0                   0                   0                   2.068471857789859e-10  0.9999548152745139 -2.091788505403397e-11  1.104739882971102e-11  11340.93965260064   7.376200114165678   45.17677829339706   11288.38667419308   0                   0.9304854944147617
            450                 990                 0.3725195991116116  0.0005652982338375179  0.03435600016147515  0                   0                   0                   0                   1.713140597696543e-10  0.9999548152745145 -8.308618975388647e-12 -1.039823799592177e-11  11340.93965260064   7.376200114046427   45.17677829170548   11288.38667419489   0                   0.9304854946000407
            460                 1012                0.3801260613100719  0.0002801956869441287  0.01702889287402942  0                   0                   0                   0                   8.531355903173034e-11  0.999954815274514   1.053615478121291e-11 -8.866062418310235e-13  11340.93965260064   7.376200114205028   45.17677829405774   11288.38667419238   0                   0.9304854945036799
            470                 1032                0.3888542742299153  0.001734897840251349  0.1054384162412758  0                   0                   0                   0                   4.405945251913815e-11  0.9999548152745119 -1.710216654739133e-12  3.664577728454937e-12  11340.93965260064   7.376200114187476   45.17677829382222   11288.38667419263   0                   0.930485494461767 
            480                 1056                0.3893947021682979  0.0001074203014662737  0.006528468821612786  0                   0                   0                   0                   4.038879742660719e-11  0.9999548152745117 -2.390190964689486e-12  3.320035254532933e-12  11340.93965260064   7.376200114181693   45.17677829374421   11288.38667419272   0                   0.930485494438656 
            490                 1076                0.3927408895180637  0.000665118193093915  0.04042255818528268  0                   0                   0                   0                   3.362947414430986e-11  0.9999548152745122 -4.54960298783022e-12  7.388451825737222e-13  11340.93965260064   7.376200114153091   45.17677829331437   11288.38667419317   0                   0.9304854944625504
            500                 1098                0.401938349479063   0.0004089170965119309  0.0248519365405126  0                   0                   0                   0                   1.853944627783423e-11  0.9999548152745118  6.964298990847141e-13 -1.58397347089353e-12  11340.93965260064   7.376200114158487   45.17677829335751   11288.38667419313   0                   0.9304854944253379
            510                 1120                0.4104986418289265  0.0002531906880214978  0.01538766406450653  0                   0                   0                   0                   1.337977037720956e-11  0.9999548152745121  1.136845337219606e-12  7.337530344414647e-13  11340.93965260064   7.376200114176726   45.17677829364769   11288.38667419282   0                   0.9304854944441399
            520                 1140                0.4183856377298089  0.001567690004835223  0.09527636004386068  0                   0                   0                   0                   5.280804172211452e-12  0.9999548152745115 -7.969383888316561e-13  2.32689457757119e-13  11340.93965260064   7.376200114165155   45.17677829348227   11288.386674193     0                   0.930485494423771 
            530                 1162                0.424627688891379   0.0009015255507765516  0.05479021534844492  0                   0                   0                   0                   5.096887708362329e-12  0.9999548152745109 -3.466059024678185e-13 -3.433257082988736e-13  11340.93965260064   7.376200114163116   45.17677829344099   11288.38667419304   0                   0.9304854944261213
            540                 1184                0.4324738152427774  0.000510913938020117  0.03105079458317261  0                   0                   0                   0                   2.07551541561532e-12  0.9999548152745117  3.461179453734784e-13 -4.612012720076928e-14  11340.93965260064   7.376200114168049   45.17677829351437   11288.38667419296   0                   0.9304854944206374
            550                 1206                0.4411824177912204  0.0003124895331035021  0.01899155137436534  0                   0                   0                   0                   1.415175210037591e-12  0.9999548152745118 -3.728672015131455e-14  1.250451836038095e-13  11340.93965260064   7.376200114167526   45.17677829351289   11288.38667419296   0                   0.9304854944155451
            560                 1226                0.4509165975350136  0.001934852823735724  0.1175906803625386  0                   0                   0                   0                   1.05708187573226e-12  0.9999548152745118 -6.522313396557964e-14 -5.882683054263488e-14  11340.93965260064   7.376200114166223   45.17677829348747   11288.38667419299   0                   0.9304854944163286
            570                 1248                0.4558853900897987  0.0009876417487886453  0.06002392728262992  0                   0                   0                   0                   4.652902797346863e-13  0.9999548152745118  3.946368156893579e-14 -3.933186376757398e-14  11340.93965260064   7.376200114166811   45.17677829349685   11288.38667419298   0                   0.9304854944143699
            580                 1272                0.4604311069455416  5.356540403061403e-05  0.003255437429960567  0                   0                   0                   0                   3.302442384061549e-13  0.9999548152745117  5.709838286937019e-14  5.492253331080647e-15  11340.93965260064   7.376200114167172   45.1767782935065    11288.38667419297   0                   0.9304854944155451
            590                 1292                0.4620996917000595  0.0003316628631169244  0.02015681050593108  0                   0                   0                   0                   3.46493662241488e-13  0.9999548152745118  4.634897442249342e-14  1.709486835201071e-14  11340.93965260065   7.376200114167197   45.17677829350772   11288.38667419297   0                   0.9304854944155451
            600                 1314                0.4634910312920667  0.0002053569029518526  0.01248056577689884  0                   0                   0                   0                   3.455110384718661e-13  0.9999548152745118  3.348453407402554e-14  2.302932118015666e-14  11340.93965260064   7.376200114167173   45.17677829350704   11288.38667419297   0                   0.9304854944147617
            610                 1334                0.4698879847679451  0.001271515815598248  0.0772763736929835  0                   0                   0                   0                   1.727676098813713e-13  0.9999548152745118 -2.018515775947489e-14  1.3041749818715e-14  11340.93965260064   7.376200114166862   45.17677829350044   11288.38667419298   0                   0.9304854944147617
            620                 1356                0.4778449743679627  0.0005555433816380308  0.03376314901905132  0                   0                   0                   0                   1.345609463594571e-13  0.9999548152745118 -9.354064344269539e-15 -1.025892984954109e-14  11340.93965260064   7.376200114166774   45.17677829349951   11288.38667419298   0                   0.9304854944139783
            630                 1378                0.4854042926918003  0.0003024375731850585  0.01838064351032193  0                   0                   0                   0                   5.414405371385628e-14  0.9999548152745118  1.010885003683713e-14 -1.50947424671639e-15  11340.93965260064   7.376200114166924   45.17677829350179   11288.38667419298   0                   0.9304854944147617
            640                 1398                0.4948253496770429  0.001872613737392192  0.1138080998900105  0                   0                   0                   0                   4.057972054828491e-14  0.9999548152745118 -1.751848827501276e-15  3.304408520151897e-15  11340.93965260064   7.376200114166886   45.17677829350063   11288.38667419298   0                   0.9304854944147617
            650                 1420                0.5006258915433909  0.001152967697813144  0.07007161183459386  0                   0                   0                   0                   2.103446536511753e-14  0.9999548152745118 -3.828842882640951e-15 -5.754287940958739e-16  11340.93965260064   7.376200114166855   45.17677829350063   11288.38667419298   0                   0.9304854944143699
            660                 1442                0.5079837242834429  0.0005367389679879671  0.0326203107794687  0                   0                   0                   0                   1.770158273892991e-14  0.9999548152745118  6.337730414046028e-16 -1.383523383235565e-15  11340.93965260064   7.376200114166876   45.17677829350106   11288.38667419298   0                   0.9304854944143699
            670                 1464                0.5152135342202195  0.0002596014998990302  0.01577728115636356  0                   0                   0                   0                   8.850274896112647e-15  0.9999548152745118  1.3220223392536e-15  4.601405810603683e-16  11340.93965260064   7.37620011416689    45.17677829350149   11288.38667419298   0                   0.9304854944143699
            680                 1484                0.5233002295942323  0.001607384062234495  0.09768876638230144  0                   0                   0                   0                   5.721524505416379e-15  0.9999548152745118 -5.649976431298053e-16  3.482692437445468e-16  11340.93965260064   7.376200114166878   45.17677829350134   11288.38667419298   0                   0.9304854944143699
            690                 1506                0.5290662374746912  0.0006999622742835561  0.04254020721958312  0                   0                   0                   0                   3.710635989285364e-15  0.9999548152745118 -4.87131755942137e-16 -2.167602734652847e-16  11340.93965260064   7.376200114166876   45.17677829350112   11288.38667419298   0                   0.9304854944143699
            700                 1534                0.540827974513042   0.0008628030919818423  0.05243685791519646  0                   0                   0                   0                   1.498355282433418e-15  0.9999548152745118  2.526050984091163e-16  4.095770185545109e-17  11340.93965260064   7.376200114166882   45.17677829350034   11288.38667419298   0                   0.9304854944139783
            710                 1558                0.5506843426863637  0.0008143984274301095  0.0494950644270649  0                   0                   0                   0                   9.853191521699473e-16  0.9999548152745118 -1.01031953762042e-16  4.499211089176057e-17  11340.93965260064   7.376200114166879   45.17677829350184   11288.38667419298   0                   0.9304854944143699
            720                 1631                0.5815107556874359  9.755396157796103e-06  0.0005928842014900582  0                   0                   0                   0                   5.875342604376897e-09  0.99995481527451    2.886366385458112e-15 -3.762972586575803e-15  11340.93965260064   7.376200114549001   45.17677829356344   11288.38667419253   0                   0.9304854948738461