# ODT 1.0
# Table Start
## mmGraph output
# Columns:  Iteration           {Field Updates}     {Sim Time}          {Time Step}         {Step Size}         Bx                  By                  Bz                  B                   {|m x h|}           Mx/Ms               My/Ms               Mz/Ms               {Total Energy}      {Exchange Energy}   {Anisotropy Energy} {Demag Energy}      {Zeeman Energy}     {Max Angle}        
# Units:       {}                     {}                ns                  ns                  {}              mT                  mT                  mT                  mT                     {}                {}                  {}                  {}                     J/m^3                 J/m^3                J/m^3            J/m^3                J/m^3              deg            
            10                  32                  0.008956979824829592  0.001459137600180682  0.08867908765098091  0                   0                   0                   0                   0.03404751305595218  0.9998642008044737  4.196730889879291e-19 -1.344746880602176e-19  11337.42575361159   17.84504121455302   54.19476005186984   11265.38595234516   0                   1.42765509010996  
            20                  56                  0.02333484813262519  0.001102445644040658  0.067001134016571   0                   0                   0                   0                   0.008266999539971696  0.999576340804824   1.517322730279455e-18 -8.537741913823191e-20  11294.11796751169   27.56918689633494   168.4280131456445   11098.12076746971   0                   1.561246789234031 
            30                  78                  0.03480627843417384  0.001452420828977832  0.08827087588112775  0                   0                   0                   0                   0.008188409145259423  0.9997515697264246  1.438879162244328e-18  1.141634070511222e-19  11285.40015462373   18.4563227402829    99.01510551994913   11167.92872636351   0                   1.364857213333608 
            40                  102                 0.04665455675912097  0.001495450976439391  0.09088603309310396  0                   0                   0                   0                   0.002689488316575285  0.9998179951538126  1.062350035675719e-18  7.956419043562875e-20  11281.81303071037   17.52156818020235   72.58343394707526   11191.70802858309   0                   1.342312368811891 
            50                  126                 0.05804663882162795  0.0011715193433121  0.07119908808979288  0                   0                   0                   0                   0.002832890664394005  0.9997716726015724  9.749414884365776e-19 -8.97898698402078e-20  11280.72516001889   19.30391307929974   91.00012856353597   11170.42111837606   0                   1.394838205350317 
            60                  148                 0.06927671380484257  0.001650850284481158  0.1003304260393424  0                   0                   0                   0                   0.0009408599066996278  0.9997484015290551  1.688777957556233e-18 -1.477820790661766e-20  11280.2432297089    19.73547903616231   100.2523512119078   11160.25539946083   0                   1.404171310366272 
            70                  172                 0.08042645953754254  0.0006893566616300011  0.04189565111056332  0                   0                   0                   0                   0.001010566398024681  0.999763803012069   8.684823603889055e-19  6.338520452838382e-21  11280.11225643362   19.2446931673926    94.13414389943819   11166.73341936678   0                   1.38783462193965  
            80                  194                 0.09217292451187364  0.001273475770879096  0.07739548997517706  0                   0                   0                   0                   0.0004450332416498742  0.9997737466370811  9.895095796431012e-19 -2.806808918756886e-20  11280.03847354193   18.97732166505079   90.18009721654694   11170.88105466033   0                   1.382347948445867 
            90                  218                 0.102968223348793   0.0001749089825339041  0.01063009341349802  0                   0                   0                   0                   0.0003426834061348134  0.9997693791011847  1.352591237405689e-18  1.040165214090785e-19  11280.02264481382   19.09732953831817   91.91570934571104   11169.00960592979   0                   1.386694872529524 
            100                 238                 0.1063541739828836  0.0005331466566112732  0.03240198805555013  0                   0                   0                   0                   0.0003263044481817316  0.9997676178166846  8.796885843939236e-19  4.335407911941391e-20  11280.01759729453   19.14759351571457   92.61590219001191   11168.25410158881   0                   1.388627341054699 
            110                 258                 0.1167254184191815  0.001612908054656188  0.09802448702172983  0                   0                   0                   0                   0.0001609930030251216  0.9997653729996531  5.64793689852914e-19 -6.685213007993631e-20  11280.01105847928   19.22306789303049   93.50861759799405   11167.27937298826   0                   1.389761820667812 
            120                 280                 0.1229935781217264  0.000447762488915674  0.02721276526385009  0                   0                   0                   0                   0.0001161525668732451  0.9997661190371189  1.230443395750991e-18 -6.451075153904409e-20  11280.00998967827   19.2075104505726    93.21219135567513   11167.59028787202   0                   1.38906650986181  
            130                 300                 0.1317082855236644  0.001366686650804584  0.08306038120264861  0                   0                   0                   0                   0.0001274669635322501  0.9997676678077343  7.440932739332041e-19  3.339104558995247e-20  11280.0084928402    19.16078556199105   92.59649780142733   11168.25120947678   0                   1.387838782829479 
            140                 322                 0.1406580006968726  0.0003718610705802463  0.02259985656451447  0                   0                   0                   0                   6.324976846654714e-05  0.9997682179995602  9.514084180260395e-19  3.837475107030917e-20  11280.00788658815   19.1366714407859    92.37768299102052   11168.49353215635   0                   1.387488023395691 
            150                 342                 0.1479336274323931  0.001142376127532613  0.06942790915079453  0                   0                   0                   0                   4.468370729657519e-05  0.9997679066356873  8.964979204014508e-19 -1.908888333198548e-20  11280.00772836356   19.14270408400208   92.50143454757638   11168.36358973199   0                   1.387773841620334 
            160                 366                 0.1609486210198435  0.0007525071945488098  0.04573362474870391  0                   0                   0                   0                   3.709926024803104e-05  0.9997672774514577  8.864123187969345e-19  1.661016288556301e-20  11280.00750563608   19.16584909113255   92.75159001982158   11168.09006652513   0                   1.388232259079335 
            170                 388                 0.1704529858218887  0.0002192255446842286  0.01332343247818399  0                   0                   0                   0                   1.656019544094185e-05  0.9997673272727564  9.032216548044617e-19 -9.647037710960557e-21  11280.00747239078   19.16690315835955   92.7317922923318    11168.10877694009   0                   1.388220984464029 
            180                 408                 0.1747170570922791  0.0006707035984237465  0.04076201119420319  0                   0                   0                   0                   2.004155710543011e-05  0.9997674201730997  1.470256589458379e-18  7.860772170707545e-21  11280.00746003637   19.1638917113427    92.69485818415114   11168.14871014088   0                   1.388141236374195 
            190                 428                 0.1876915353510936  0.002014783259243219  0.1224484525805066  0                   0                   0                   0                   9.769838106491205e-06  0.9997675845000646  6.981477555126298e-19 -3.104036500764984e-20  11280.00743802239   19.15639978851636   92.62952604046015   11168.22151219342   0                   1.388006102299418 
            200                 450                 0.1914570380139299  0.0005906823829953575  0.03589872182654285  0                   0                   0                   0                   6.466632847621382e-06  0.9997675769911155  1.196824723735937e-18 -4.288090616002233e-20  11280.00743659435   19.15624785913794   92.63251178612911   11168.21867694908   0                   1.388004510805235 
            210                 470                 0.202860965955885   0.001784118407349464  0.1084297962066637  0                   0                   0                   0                   7.671077422266542e-06  0.9997674988057695  1.318972565390634e-18  4.489657645682338e-20  11280.00743279723   19.15908735372009   92.66359541358446   11168.18475002992   0                   1.388071402678037 
            220                 492                 0.209709859302656   0.0004734228533243907  0.02877227391078984  0                   0                   0                   0                   4.52832679767019e-06  0.9997674719184131  7.216808259231678e-19  9.616833435322032e-20  11280.00743150864   19.16050977759458   92.67428363347078   11168.17263809758   0                   1.388096275956398 
            230                 512                 0.2190450740910067  0.001456006287311194  0.08848878211133779  0                   0                   0                   0                   2.61848107651396e-06  0.9997674795700229  6.12980453074492e-19 -1.075670969359614e-19  11280.00743104347   19.16051001648156   92.67124089411551   11168.17568013287   0                   1.388092284823652 
            240                 534                 0.2265916058344261  0.0004086338065019393  0.02483471959015536  0                   0                   0                   0                   2.897501664151002e-06  0.9997674988943512  1.193462856534431e-18 -1.648911323197365e-19  11280.00743070803   19.15967712797465   92.66355878082177   11168.18419479924   0                   1.388072802126059 
            250                 554                 0.2345715163506641  0.001249975683432842  0.07596727216063098  0                   0                   0                   0                   1.423805864910107e-06  0.9997675096803159  1.216995926944969e-18  7.756520909547579e-20  11280.00743051499   19.15907967902862   92.65927142810878   11168.18907940785   0                   1.388063005785915 
            260                 578                 0.2473186446623558  0.0009515763137255666  0.05783205046667132  0                   0                   0                   0                   1.145249608749743e-06  0.9997675027332091  6.084979634724847e-19  5.407823850780992e-20  11280.00743044427   19.15930457213889   92.66203351920693   11168.18609235292   0                   1.388070105473151 
            270                 602                 0.2586896210986261  0.000838273840768311  0.05094609267269411  0                   0                   0                   0                   4.873082072146219e-07  0.9997674959117551  1.127346134904824e-18 -9.799845970269708e-20  11280.00743040055   19.15967003711464   92.66474498649211   11168.18301537694   0                   1.388076155843509 
            280                 624                 0.2701393320431191  0.001366394131946403  0.08304260336904262  0                   0                   0                   0                   4.242307773009875e-07  0.9997674979914855  1.095968707690773e-18 -2.030654449168602e-20  11280.0074303926    19.15959206821378   92.66391801911067   11168.18392030528   0                   1.3880744939882   
            290                 648                 0.2808052360822808  0.0001716540592408564  0.01043227545036305  0                   0                   0                   0                   2.145693758381122e-07  0.9997675006960068  7.653850995427386e-19  3.331712513955316e-20  11280.00743038599   19.15944785133933   92.66284303542724   11168.18513949922   0                   1.38807174010001  
            300                 668                 0.2861523318707621  0.001062836690654417  0.06459389987452221  0                   0                   0                   0                   1.258064976442887e-07  0.9997675008613522  1.279750781373071e-18  4.048903219695632e-20  11280.00743038527   19.15943529557003   92.66277739245317   11168.18521769725   0                   1.388071600694219 
            310                 692                 0.2958263602878711  0.000245380781669986  0.0149130170059934  0                   0                   0                   0                   1.539220492966802e-07  0.9997674998953414  8.83050451595429e-19  1.024011295817194e-19  11280.00743038437   19.15948383224038   92.66316143832358   11168.1847851138    0                   1.388072585418302 
            320                 712                 0.3034700743371894  0.001519333123223034  0.09233747056387988  0                   0                   0                   0                   8.759878836525153e-08  0.999767499194478   8.852916963964325e-19 -2.93647407522242e-21  11280.00743038376   19.15952131320425   92.66343998369639   11168.18446908686   0                   1.388073263543498 
            330                 734                 0.3098437403784277  0.0009407310236818802  0.05717292796426627  0                   0                   0                   0                   4.601562697950554e-08  0.9997674990695717  7.093539795176479e-19 -8.590589136586113e-20  11280.00743038365   19.15952800792288   92.66348958879651   11168.18441278693   0                   1.388073399472371 
            340                 756                 0.3203347443947238  0.0005824758543012734  0.03539997004515989  0                   0                   0                   0                   5.439939745327977e-08  0.9997674994376163  5.972917394674666e-19  2.245141313294801e-20  11280.00743038351   19.1595081952327    92.66334328253971   11168.18457890574   0                   1.388073013161741 
            350                 778                 0.3302742394532815  0.0003606536962245749  0.02191872838804854  0                   0                   0                   0                   2.083793975025138e-08  0.9997674997064714  8.628792483863963e-19  2.720301002348824e-20  11280.00743038343   19.15949444032458   92.66323644794795   11168.18469949516   0                   1.388072710044383 
            360                 800                 0.3394989876725472  0.0002233072626786885  0.01357149888929729  0                   0                   0                   0                   2.037432413795469e-08  0.9997674996586119  7.205602035226661e-19 -3.008219489468415e-20  11280.00743038342   19.1594975895102    92.66325548160755   11168.1846773123    0                   1.388072789443529 
            370                 820                 0.3464551023667595  0.001382659711714079  0.08403114397942316  0                   0                   0                   0                   1.718357619373463e-08  0.9997674995537088  1.148637960514359e-18 -4.432853421710063e-20  11280.00743038341   19.15950314293101   92.66329717099003   11168.18463006949   0                   1.388072904639823 
            380                 842                 0.3540473447128468  0.0008561064496805144  0.05202986947933327  0                   0                   0                   0                   7.340343253155592e-09  0.9997674994869942  1.037696342864679e-18  1.785838991852515e-21  11280.0074303834    19.15950630346343   92.6633236793474    11168.18460040059   0                   1.388072976415838 
            390                 864                 0.3635946180310196  0.0005300785485938393  0.03221552379079058  0                   0                   0                   0                   7.38009228645389e-09  0.9997674995027354  1.258458955763536e-18  7.471216110108984e-20  11280.0074303834    19.15950510393482   92.66331741979745   11168.18460785967   0                   1.388072953151538 
            400                 886                 0.374646760464235   0.0002911965456122418  0.017697470059584   0                   0                   0                   0                   3.950794403735107e-09  0.999767499557339   1.084762483685755e-18 -6.116245506908044e-20  11280.0074303834    19.15950235177312   92.6632957222015    11168.18463230942   0                   1.388072897859894 
            410                 906                 0.3837176547358278  0.00180301225754438  0.1095780699522597  0                   0                   0                   0                   2.362855437255279e-09  0.9997674995656411  1.169929786123893e-18 -6.144930946956386e-20  11280.00743038339   19.15950213648624   92.66329242446128   11168.18463582245   0                   1.388072883711562 
            420                 928                 0.3895449759742877  0.0007574086196176739  0.04603150885726413  0                   0                   0                   0                   2.692076826239843e-09  0.9997674995559428  1.153120450116366e-18  2.875622651017925e-20  11280.0074303834    19.15950269272665   92.66329627760956   11168.18463141306   0                   1.388072896324241 
            430                 950                 0.3978323318851361  0.0004245946590704037  0.02580474040500378  0                   0                   0                   0                   1.475585971548432e-09  0.9997674995405985  8.583967587843891e-19  9.828605324890549e-20  11280.0074303834    19.15950343517239   92.66330237572544   11168.1846245725    0                   1.388072916632515 
            440                 972                 0.4067208191673675  0.0002628978215322729  0.01597761510362388  0                   0                   0                   0                   8.047512545668828e-10  0.9997674995360641  7.171983363211606e-19  2.772130378499674e-20  11280.0074303834    19.15950357243689   92.66330417619403   11168.18462263476   0                   1.388072918768197 
            450                 992                 0.4149101963398799  0.001627794016950988  0.09892918138019631  0                   0                   0                   0                   8.988350401891609e-10  0.9997674995410275  1.066832525277726e-18 -3.444009676238412e-20  11280.0074303834    19.15950328932072   92.66330220249102   11168.18462489158   0                   1.388072912285788 
            460                 1014                0.4231648447636684  0.0008584375775256225  0.05217154377411971  0                   0                   0                   0                   4.333752599891534e-10  0.9997674995463143  6.79097174704099e-19  4.944799099692193e-20  11280.00743038339   19.15950304939945   92.66330010488201   11168.18462722911   0                   1.388072906969824 
            470                 1036                0.4306114030892357  0.0004803390454823016  0.02919260548918688  0                   0                   0                   0                   2.895248441503271e-10  0.9997674995474071  1.091486218088766e-18 -1.704533657597172e-20  11280.00743038339   19.15950302700036   92.66329966802799   11168.18462768837   0                   1.388072906302309 
            480                 1058                0.4406668463354512  0.0002974132763013616  0.01807529186721525  0                   0                   0                   0                   2.875892516750898e-10  0.9997674995450148  4.594551842057435e-19 -5.36797110175482e-20  11280.0074303834    19.15950315773097   92.66330061921153   11168.18462660645   0                   1.388072909509638 
            490                 1078                0.4499313943699256  0.001841504615380454  0.1119174429997471  0                   0                   0                   0                   1.071223466925647e-10  0.9997674995432319  1.164326674121384e-18 -3.771865386091862e-20  11280.0074303834    19.15950323022208   92.66330132874104   11168.18462582443   0                   1.388072910892724 
            500                 1100                0.4561682548157928  0.000832524677963358  0.05059668730322309  0                   0                   0                   0                   1.121933378722753e-10  0.9997674995432269  1.123984267703319e-18  7.228589038204556e-20  11280.00743038339   19.15950322081817   92.66330133002782   11168.18462583255   0                   1.388072910758013 
            510                 1122                0.4651044672711354  0.0004184855844555586  0.02543346139528657  0                   0                   0                   0                   9.830663597423622e-11  0.9997674995441084  1.28535389337558e-18  1.912613393288093e-20  11280.0074303834    19.15950317577401   92.66330097900828   11168.18462622861   0                   1.388072909513052 
            520                 1144                0.4738364340198855  0.0002434973313482017  0.01479855031268696  0                   0                   0                   0                   3.775288423172849e-11  0.9997674995447182  7.071127347166443e-19 -5.06594245441307e-20  11280.0074303834    19.1595031523764    92.66330073619953   11168.18462649482   0                   1.388072909092113 
            530                 1164                0.4814214778033916  0.001507671295265861  0.09162872296978272  0                   0                   0                   0                   4.16523370651532e-11  0.9997674995446773  8.236574643688328e-19  2.719215948146911e-20  11280.0074303834    19.15950315841636   92.66330075283823   11168.18462647214   0                   1.388072909233652 
            540                 1186                0.4895268845028934  0.0008958784386495732  0.05444701210892781  0                   0                   0                   0                   3.320688847670187e-11  0.9997674995443574  1.109416176496795e-18 -3.600514252484278e-20  11280.0074303834    19.15950317355174   92.6633008791198    11168.18462633072   0                   1.388072909595507 
            550                 1208                0.4975113848302459  0.0005547043158629405  0.03371215479657021  0                   0                   0                   0                   1.363692823880418e-11  0.9997674995441537  1.239408374955006e-18  1.425984091794394e-20  11280.0074303834    19.15950318094513   92.66330095981603   11168.18462624263   0                   1.38807290974361  
            560                 1230                0.5089377593349643  0.000242093590418317  0.01471323795767322  0                   0                   0                   0                   3.125300895920516e-11  0.9997674995442262  8.326224435728473e-19 -2.24591571858281e-20  11280.0074303834    19.15950317614388   92.66330093283166   11168.18462627442   0                   1.388072909664569 
            570                 1250                0.516364796977024   0.001453770417216127  0.08835289710631011  0                   0                   0                   0                   8.824078745733232e-12  0.9997674995443324  8.718442275904107e-19  9.727305973977955e-20  11280.00743038339   19.15950317170394   92.66330089067957   11168.18462632101   0                   1.388072909536423 
            580                 1272                0.5224634247225386  0.0009001363242084734  0.05470578510376997  0                   0                   0                   0                   4.475129143368737e-12  0.9997674995443702  4.482489602007254e-19 -9.749091239120524e-21  11280.0074303834    19.15950317047918   92.66330087469044   11168.18462633823   0                   1.388072909507538 
            590                 1294                0.5321545445592357  0.000460600928027961  0.02799302140089933  0                   0                   0                   0                   5.29622743172359e-12  0.9997674995443465  8.202955971673274e-19 -3.396946847248852e-20  11280.00743038339   19.15950317214762   92.66330088523436   11168.18462632601   0                   1.388072909554805 
            600                 1316                0.5417205566777546  0.0002436106875973756  0.0148054395387305  0                   0                   0                   0                   3.038750233987378e-12  0.9997674995442956  7.272839379256769e-19 -3.742608537765577e-21  11280.00743038339   19.15950317410566   92.6633009044579    11168.18462630483   0                   1.38807290959682  
            610                 1336                0.5493091315558659  0.001508373167282578  0.0916713792415987  0                   0                   0                   0                   1.613090679356648e-12  0.9997674995442849  8.841710739959308e-19 -7.667120720610248e-20  11280.0074303834    19.15950317427045   92.66330090809002   11168.18462630104   0                   1.388072909596032 
            620                 1358                0.5561557889257768  0.0006221077470505209  0.03780859832699541  0                   0                   0                   0                   1.883171257508928e-12  0.9997674995442966  1.123984267703319e-18  3.855877327457673e-21  11280.00743038339   19.15950317371378   92.66330090378894   11168.18462630589   0                   1.388072909579751 
            630                 1380                0.5646336099546967  0.0003427816466176765  0.02083255457318929  0                   0                   0                   0                   1.058495761712805e-12  0.9997674995443144  5.479843538453867e-19  6.869251879422021e-20  11280.00743038339   19.15950317306295   92.66330089730933   11168.18462631302   0                   1.388072909568197 
            640                 1400                0.5753114017127482  0.002122413606292912  0.1289896869224517  0                   0                   0                   0                   1.038858278844192e-12  0.9997674995443183  8.639998707868981e-19  3.207383565323665e-20  11280.0074303834    19.15950317302184   92.66330089594412   11168.18462631443   0                   1.388072909567672 
            650                 1422                0.5800981749807023  0.0009514619637046405  0.05782510084414953  0                   0                   0                   0                   6.805526053149205e-13  0.9997674995443144  5.121244370293287e-19  6.209997246207464e-20  11280.0074303834    19.15950317317841   92.66330089727305   11168.18462631294   0                   1.388072909570823 
            660                 1444                0.5883369385862702  0.0005286973893212581  0.03213158383599946  0                   0                   0                   0                   3.870176714882994e-13  0.999767499544307   1.010801405252636e-18 -3.724744872618479e-20  11280.00743038339   19.15950317340543   92.66330089958318   11168.18462631041   0                   1.388072909574762 
            670                 1466                0.5972646938883104  0.0002901479860528992  0.01763374385236495  0                   0                   0                   0                   2.087407117702053e-13  0.9997674995443061  3.350660977500422e-19  9.262664696706657e-20  11280.00743038339   19.1595031734365    92.66330090018316   11168.18462630977   0                   1.388072909575812 
            680                 1486                0.6063029250907714  0.001796519853129743  0.1091834940739601  0                   0                   0                   0                   2.251009293297488e-13  0.9997674995443081  3.36186720150544e-20  2.631144891049107e-20  11280.0074303834    19.15950317333506   92.66330089929056   11168.18462631077   0                   1.388072909573974 
            690                 1508                0.6135697220785339  0.001055928190881983  0.06417403580085251  0                   0                   0                   0                   1.179481222354669e-13  0.9997674995443098  6.701321955000845e-19 -4.915493710310775e-20  11280.00743038339   19.15950317327536   92.66330089864063   11168.18462631148   0                   1.388072909572398 
            700                 1530                0.6209570879571124  0.000641559368953338  0.03899077064813911  0                   0                   0                   0                   7.323650517481938e-14  0.9997674995443099  7.833150579507676e-19 -1.417887215439715e-19  11280.0074303834    19.1595031732714    92.66330089851995   11168.1846263116    0                   1.388072909572136 
            710                 1552                0.6317657331795316  0.0003419506073217805  0.02078204815998121  0                   0                   0                   0                   7.919941229563456e-14  0.9997674995443094  8.718442275904107e-19 -9.046159378534254e-20  11280.00743038339   19.15950317331438   92.663300898918     11168.18462631116   0                   1.388072909573711 
            720                 1574                0.6405083338517679  0.0002079641660867214  0.01263902219392049  0                   0                   0                   0                   2.909574691551071e-14  0.9997674995443088  1.212513437342962e-18  9.988273922535725e-20  11280.0074303834    19.15950317333233   92.66330089912795   11168.18462631093   0                   1.388072909573711 