# ODT 1.0
# Table Start
## mmGraph output
# Columns:  Iteration           {Field Updates}     {Sim Time}          {Time Step}         {Step Size}         Bx                  By                  Bz                  B                   {|m x h|}           Mx/Ms               My/Ms               Mz/Ms               {Total Energy}      {Exchange Energy}   {Anisotropy Energy} {Demag Energy}      {Zeeman Energy}     {Max Angle}        
# Units:       {}                     {}                ns                  ns                  {}              mT                  mT                  mT                  mT                     {}                {}                  {}                  {}                     J/m^3                 J/m^3                J/m^3            J/m^3                J/m^3              deg            
 0.001042765860019994  0.06337409514271511  0                   0                   0                   0                     0.9997674995443093  1.568871360702539e-19  3.849525012746126e-18  11280.00743038339   19.15950317331507   92.66330089896559   11168.18462631111   0                   1.388072909573974 
 0.0008298238411674789  0.05043254394695353  10                  10                  0                   14.14213562373095     0.9994104429083251  0.02700094121854125 -4.274943717311166e-15  134.108741890314    18.91843521238287   234.8631443035355   11170.85238776997  -11290.52522539557   1.416561111659455 
 0.0006127004508681884  0.03723686990151415  30                  30                  0                   42.42640687119285     0.9967574982209442  0.07759183763882498  1.407838456549798e-19 -22985.7572550593    20.07815929937452   1283.370665404156   11164.32200360959  -35453.52808337242   1.496506675086979 
 0.0004631131633050385  0.02814570249986371  100                 100                 0                   141.4213562373095     0.971153382507346   0.2367503415485466 -1.165414165164974e-17 -111114.8239299896   40.36298008676356   10678.06691302631   11036.15582304549  -132869.4096461481   2.237187253354476 
 0.001331615471702408  0.08092893029271384  300                 300                 0                   424.2640687119285     0.9079583925828779  0.4073132299440094 -0.09588751341944309 -387088.4911655882   38.50330683724626   29195.82104214764   17716.81991929985  -434039.6354338729   2.049159613019169 
# Table End
