# OOMMF: rectangular mesh v1.0
# Segment count: 1
# Begin: Segment
# Begin: Header
# Title: /home/arne/wd/les/ingenieursproject/oommf/test.field0000-pass00000.omf
# Desc: Field Index: 0
# Desc: Applied field (T): 0 0 0
# Desc: Iteration: 0
# Desc: Time (s): 0
# Desc: |m x h|: 0.39767182754665648
# Desc: User Comment:
# meshtype: rectangular
# meshunit: m
# xbase: 1e-08
# ybase: 1e-08
# zbase: 1e-08
# xstepsize: 2e-08
# ystepsize: 2e-08
# zstepsize: 2e-08
# xnodes: 25
# ynodes: 10
# znodes: 1
# xmin: 0
# ymin: 0
# zmin: 0
# xmax: 5e-07
# ymax: 2e-07
# zmax: 2e-08
# valueunit: A/m
# valuemultiplier: 800000
# ValueRangeMinMag: 1e-08
# ValueRangeMaxMag: 1
# End: Header
# Begin: Data Text
-0.98765832185745239 -0.10848169773817062  0.11297255009412766
-0.037920899689197540 -0.71472692489624023 -0.69837480783462524
-0.31266742944717407  0.61772644519805908  0.72156298160552979
 0.25806123018264771 -0.86278259754180908 -0.43475347757339478
-0.49774476885795593  0.30813625454902649 -0.81074178218841553
-0.21921291947364807  0.091666847467422485 -0.97136133909225464
 0.44290313124656677  0.51464807987213135  0.73414862155914307
-0.28170156478881836  0.52140653133392334 -0.80546844005584717
 0.95341920852661133  0.28507292270660400 -0.098616331815719604
 0.45329800248146057 -0.45313858985900879  0.76758474111557007
 0.56858545541763306  0.12234482914209366 -0.81347543001174927
 0.96524679660797119 -0.23431012034416199 -0.11574722826480865
 0.19629803299903870 -0.95754587650299072  0.21112306416034698
-0.76214146614074707  0.15525011718273163 -0.62852025032043457
 0.96437674760818481  0.22596138715744019  0.13754603266716003
-0.061608877032995224  0.90491795539855957 -0.42110317945480347
-0.0053372150287032127  0.85862219333648682 -0.51258111000061035
 0.20315773785114288 -0.97904539108276367  0.014038876630365849
-0.24428360164165497 -0.62253195047378540 -0.74349141120910645
 0.79617041349411011 -0.56322795152664185  0.22110384702682495
 0.17465469241142273 -0.93040585517883301 -0.32224327325820923
-0.69476431608200073 -0.63740170001983643  0.33319911360740662
-0.29209128022193909 -0.83328223228454590  0.46938616037368774
 0.85324859619140625 -0.37655302882194519 -0.36079716682434082
-0.17667347192764282 -0.51490420103073120  0.83884453773498535
 0.96183478832244873 -0.067059293389320374 -0.26528638601303101
-0.22369882464408875 -0.58488112688064575 -0.77966201305389404
 0.85380274057388306 -0.43742007017135620 -0.28228461742401123
 0.027957333251833916 -0.64848226308822632 -0.76071619987487793
 0.89525949954986572  0.21960347890853882  0.38766580820083618
 0.22640898823738098 -0.32474270462989807 -0.91830343008041382
 0.0096535161137580872  0.54795116186141968 -0.83645462989807129
 0.013762189075350761 -0.45123344659805298 -0.89229983091354370
 0.48587030172348022 -0.0050685307942330837  0.87401622533798218
 0.27120515704154968  0.10740522295236588  0.95651024580001831
-0.28456476330757141 -0.70292568206787109 -0.65185767412185669
-0.0036102279555052519  0.21683272719383240 -0.97620207071304321
-0.90751582384109497  0.067165970802307129 -0.41461277008056641
-0.18467827141284943  0.39210972189903259 -0.90119028091430664
-0.46361732482910156 -0.87427550554275513 -0.14387938380241394
 0.64551395177841187  0.72826230525970459 -0.23009952902793884
 0.69088459014892578  0.43375071883201599  0.57839328050613403
-0.79429453611373901 -0.59078794717788696 -0.14165368676185608
 0.58767312765121460  0.80751645565032959  0.050570990890264511
 0.50631499290466309 -0.25964906811714172  0.82233053445816040
 0.19691005349159241  0.94306206703186035 -0.26806783676147461
-0.85556024312973022  0.27036249637603760  0.44149839878082275
-0.90711694955825806  0.10235987603664398  0.40824174880981445
-0.14116236567497253 -0.98716473579406738  0.074692800641059875
-0.85148751735687256 -0.52322173118591309  0.034756612032651901
 0.85130947828292847  0.52118611335754395 -0.060309346765279770
-0.41065973043441772  0.41548761725425720 -0.81162101030349731
-0.75859290361404419  0.32181319594383240 -0.56654483079910278
 0.69200855493545532 -0.30280011892318726  0.65531384944915771
-0.19522461295127869 -0.72513091564178467  0.66035783290863037
-0.98500400781631470  0.0071528009139001369  0.17238315939903259
-0.16492497920989990  0.84934985637664795  0.50140255689620972
-0.85117721557617188 -0.17837367951869965  0.49363970756530762
 0.79868972301483154 -0.45351445674896240 -0.39549896121025085
 0.43238881230354309 -0.89400613307952881  0.11744321882724762
 0.79718583822250366 -0.40998062491416931  0.44318234920501709
-0.64906442165374756 -0.41638487577438354 -0.63666242361068726
 0.020888116210699081  0.99856448173522949 -0.049321494996547699
 0.47760233283042908 -0.51004230976104736  0.71536904573440552
 0.95134007930755615 -0.15669381618499756 -0.26532828807830811
 0.62471836805343628 -0.61645358800888062 -0.47928276658058167
-0.032994594424962997 -0.35406100749969482  0.93464010953903198
-0.17359676957130432  0.079246997833251953  0.98162317276000977
 0.77787071466445923  0.56204885244369507  0.28110176324844360
-0.88107371330261230 -0.47297471761703491 -0.0020011435262858868
 0.78748601675033569  0.54448795318603516  0.28878831863403320
 0.46713078022003174 -0.74980783462524414 -0.46859049797058105
-0.22509047389030457  0.88848340511322021  0.39991435408592224
-0.0042102499864995480  0.91051101684570312  0.41346338391304016
 0.97158491611480713 -0.064009666442871094 -0.22787171602249146
 0.72978067398071289  0.061419166624546051  0.68091690540313721
 0.82013696432113647  0.12530727684497833  0.55827718973159790
 0.22729614377021790 -0.70456659793853760 -0.67225170135498047
 0.88270771503448486  0.29846081137657166 -0.36297142505645752
-0.87960952520370483 -0.44558894634246826  0.16654603183269501
 0.70094007253646851 -0.39990139007568359 -0.59056061506271362
-0.65286004543304443 -0.73034220933914185 -0.20093280076980591
-0.12755677103996277  0.93378818035125732  0.33431857824325562
-0.80694568157196045 -0.43433940410614014 -0.40023484826087952
-0.79076558351516724  0.26251545548439026 -0.55296963453292847
 0.46193000674247742  0.64429104328155518  0.60951596498489380
 0.84987485408782959 -0.38752046227455139  0.35712826251983643
-0.95565062761306763  0.28332546353340149 -0.080364882946014404
-0.50391578674316406  0.62840092182159424  0.59260541200637817
-0.30283436179161072 -0.89419192075729370  0.32971519231796265
 0.21043205261230469  0.96859353780746460 -0.13245739042758942
 0.67880809307098389  0.17607025802135468 -0.71289473772048950
-0.057799518108367920  0.10043792426586151  0.99326300621032715
 0.33081907033920288  0.37525597214698792  0.86587625741958618
 0.79805678129196167  0.054594267159700394 -0.60010403394699097
 0.87454575300216675 -0.47808706760406494 -0.081255465745925903
 0.88491356372833252  0.22681377828121185 -0.40679663419723511
-0.76664024591445923  0.12722249329090118 -0.62934660911560059
 0.64980196952819824  0.39951452612876892  0.64664179086685181
 0.75609236955642700  0.59816843271255493 -0.26555395126342773
 0.32784381508827209  0.51587343215942383 -0.79144996404647827
-0.092900283634662628  0.95514869689941406 -0.28117707371711731
-0.41549551486968994 -0.00037124135997146368  0.90959513187408447
-0.78224158287048340 -0.57733279466629028  0.23406192660331726
-0.22348381578922272  0.43530428409576416  0.87210386991500854
 0.17185607552528381 -0.88926196098327637 -0.42388513684272766
-0.11404064297676086  0.32774198055267334  0.93785923719406128
-0.10737055540084839  0.20706398785114288  0.97241765260696411
-0.24776755273342133  0.57609528303146362 -0.77892583608627319
-0.96174710988998413  0.26994416117668152  0.046611875295639038
 0.50255900621414185  0.60474288463592529 -0.61783534288406372
 0.96126401424407959 -0.23014049232006073 -0.15168017148971558
 0.29642656445503235  0.018772073090076447 -0.95487111806869507
 0.29376545548439026  0.26089420914649963 -0.91958475112915039
-0.69674289226531982 -0.10964150726795197  0.70889216661453247
 0.28944459557533264 -0.91349190473556519  0.28592720627784729
-0.26230537891387939  0.45187604427337646  0.85264521837234497
 0.74438244104385376  0.65314072370529175  0.13893163204193115
 0.20946958661079407 -0.93777203559875488  0.27695864439010620
 0.60212910175323486  0.55003416538238525 -0.57870805263519287
 0.37934914231300354 -0.72104263305664062  0.57982045412063599
 0.39034092426300049  0.55397170782089233 -0.73535656929016113
 0.68663322925567627  0.72059160470962524  0.096345961093902588
 0.16043576598167419 -0.85504227876663208  0.49311569333076477
-0.42140674591064453 -0.89716196060180664  0.13235087692737579
 0.093994379043579102 -0.24574512243270874  0.96476650238037109
 0.11333978176116943  0.81679511070251465 -0.56568527221679688
 0.65659952163696289  0.54955774545669556  0.51658815145492554
-0.44528287649154663 -0.27679622173309326 -0.85153216123580933
-0.50583738088607788  0.41451033949851990  0.75651156902313232
-0.66035199165344238 -0.42997044324874878  0.61567902565002441
-0.86892145872116089 -0.11865871399641037 -0.48051598668098450
-0.96321713924407959  0.25835579633712769  0.073925748467445374
-0.077016286551952362  0.95484167337417603 -0.28695967793464661
 0.97649306058883667  0.21548183262348175 -0.0053792991675436497
 0.063047744333744049 -0.23207372426986694  0.97065275907516479
-0.080943852663040161  0.089819565415382385 -0.99266338348388672
-0.082105062901973724  0.31859400868415833 -0.94432866573333740
-0.26737117767333984 -0.54374688863754272 -0.79551994800567627
-0.091248564422130585 -0.14154474437236786 -0.98571741580963135
-0.076566509902477264  0.73755383491516113 -0.67093366384506226
 0.81814354658126831  0.54304772615432739 -0.18905089795589447
 0.78018623590469360  0.56486284732818604  0.26877382397651672
 0.49565252661705017 -0.85795229673385620 -0.13507930934429169
-0.48409667611122131  0.62086147069931030 -0.61658853292465210
 0.72041583061218262  0.52064299583435059 -0.45818325877189636
-0.30414858460426331  0.40193367004394531 -0.86367988586425781
-0.83889400959014893  0.22855794429779053 -0.49398192763328552
 0.90297931432723999 -0.42696321010589600  0.048277918249368668
-0.87661528587341309  0.42378494143486023 -0.22792981564998627
-0.37116312980651855  0.83503443002700806  0.40614709258079529
 0.71192896366119385  0.41563132405281067  0.56604570150375366
 0.62693917751312256 -0.49016502499580383 -0.60554563999176025
-0.98995512723922729 -0.13890916109085083 -0.026327215135097504
 0.13872475922107697 -0.69570755958557129  0.70480239391326904
-0.71489846706390381 -0.64897739887237549 -0.26028540730476379
 0.95945721864700317  0.10135746002197266  0.26299917697906494
 0.55095064640045166  0.72632640600204468 -0.41097849607467651
 0.069030970335006714 -0.25423455238342285  0.96467584371566772
 0.35203212499618530  0.058031130582094193  0.93418723344802856
 0.63263481855392456 -0.32171639800071716 -0.70446556806564331
-0.45522105693817139  0.050031609833240509  0.88897168636322021
-0.97191202640533447 -0.21923136711120605 -0.085584215819835663
-0.45271614193916321  0.58949893712997437  0.66898363828659058
 0.27818813920021057 -0.071773111820220947 -0.95784133672714233
 0.11409279704093933 -0.46538564562797546 -0.87772381305694580
 0.17902654409408569 -0.81954836845397949  0.54432523250579834
 0.30269095301628113  0.72208011150360107  0.62207597494125366
 0.60527312755584717 -0.78538328409194946  0.12968230247497559
-0.52995049953460693 -0.84796297550201416 -0.010548759251832962
-0.24908038973808289 -0.17986477911472321  0.95163416862487793
-0.97389048337936401 -0.17817971110343933 -0.14067469537258148
 0.12631207704544067 -0.56131833791732788 -0.81790399551391602
-0.97750365734100342 -0.11568938940763474  0.17635917663574219
 0.54630792140960693  0.47691628336906433  0.68854814767837524
 0.46073549985885620 -0.56683307886123657  0.68295174837112427
-0.65012592077255249  0.38180947303771973  0.65693062543869019
 0.60045784711837769  0.65192550420761108  0.46308043599128723
-0.36485704779624939 -0.16310921311378479 -0.91666501760482788
 0.90210247039794922  0.011916855350136757 -0.43135735392570496
-0.93703907728195190  0.0098468689247965813  0.34908571839332581
-0.31239026784896851 -0.94944167137145996 -0.031190702691674232
-0.72656708955764771  0.67150950431823730  0.14551721513271332
-0.79213625192642212 -0.50012385845184326  0.34985187649726868
-0.42190620303153992 -0.18472415208816528 -0.88762164115905762
 0.84699505567550659  0.19726800918579102 -0.49364435672760010
 0.43093019723892212 -0.88299858570098877  0.18604478240013123
 0.64331644773483276 -0.16403268277645111  0.74782162904739380
-0.77364790439605713 -0.60061973333358765 -0.20180417597293854
 0.70502310991287231 -0.26158830523490906 -0.65917670726776123
-0.71130698919296265  0.46783971786499023 -0.52456492185592651
 0.23801247775554657  0.91683155298233032 -0.32057747244834900
-0.47559893131256104 -0.24768579006195068 -0.84407192468643188
 0.58341693878173828  0.69067257642745972  0.42731261253356934
-0.17571544647216797  0.83504605293273926 -0.52136564254760742
 0.31664943695068359 -0.69632107019424438  0.64410412311553955
-0.88644933700561523 -0.38939332962036133 -0.25016081333160400
 0.95567083358764648  0.15901640057563782 -0.24780455231666565
 0.10721889883279800 -0.78003793954849243 -0.61647778749465942
 0.85340487957000732  0.44582051038742065  0.27008181810379028
-0.72889173030853271  0.52970445156097412 -0.43373954296112061
-0.017836902290582657 -0.98966258764266968  0.14230197668075562
-0.18656411767005920 -0.70066672563552856  0.68866539001464844
-0.27721366286277771  0.92300784587860107  0.26685035228729248
-0.19230976700782776  0.40906667709350586  0.89200973510742188
 0.16061438620090485 -0.49470338225364685  0.85409110784530640
 0.19602388143539429 -0.95232236385345459 -0.23378780484199524
 0.23466326296329498 -0.068515151739120483  0.96965914964675903
-0.090283893048763275  0.68547844886779785 -0.72247362136840820
-0.085200928151607513 -0.69753998517990112  0.71146243810653687
-0.26988089084625244  0.96245115995407104  0.029190478846430779
-0.16234661638736725  0.27880197763442993 -0.94652682542800903
-0.39876583218574524  0.47515666484832764 -0.78435444831848145
-0.17328095436096191 -0.43901854753494263  0.88161015510559082
 0.66386419534683228  0.63318449258804321  0.39794686436653137
-0.55323630571365356 -0.26684203743934631  0.78912925720214844
 0.96827316284179688 -0.20065444707870483  0.14894585311412811
 0.17233325541019440  0.95693504810333252 -0.23361632227897644
-0.93795353174209595  0.34203597903251648  0.057048387825489044
 0.65107405185699463 -0.74109005928039551  0.16397598385810852
-0.74396079778671265 -0.11871115863323212 -0.65759414434432983
 0.89334338903427124 -0.44853261113166809  0.027497055009007454
-0.30903097987174988 -0.38946712017059326  0.86764925718307495
-0.20430785417556763 -0.83625006675720215  0.50886553525924683
-0.70345240831375122  0.23349042236804962  0.67129498720169067
 0.025038557127118111  0.89246225357055664  0.45042669773101807
-0.28322765231132507  0.50703704357147217 -0.81406116485595703
-0.31746742129325867  0.021333109587430954 -0.94802916049957275
 0.22197979688644409 -0.77388006448745728 -0.59315645694732666
-0.43039384484291077  0.32457026839256287 -0.84226793050765991
-0.032519489526748657 -0.66166317462921143  0.74909567832946777
-0.37028911709785461  0.92041552066802979 -0.12538416683673859
 0.86192953586578369  0.15159067511558533  0.48383644223213196
-0.53645861148834229 -0.82133680582046509 -0.19395364820957184
-0.25712716579437256 -0.32691660523414612  0.90940153598785400
-0.85680156946182251 -0.12637661397457123 -0.49992001056671143
-0.79962152242660522 -0.59817296266555786  0.052862741053104401
-0.88538652658462524  0.30297991633415222  0.35255342721939087
 0.57925355434417725  0.70999294519424438 -0.40046885609626770
 0.83172845840454102  0.17652897536754608  0.52636992931365967
 0.48302301764488220  0.33913373947143555  0.80726516246795654
 0.12442211806774139  0.83715248107910156 -0.53263014554977417
 0.17691813409328461 -0.97798067331314087 -0.11069691181182861
-0.24521434307098389  0.96226793527603149 -0.11794208735227585
 0.44776073098182678 -0.84253805875778198 -0.29939937591552734
 0.94909405708312988 -0.13203561305999756 -0.28598442673683167
 0.43574288487434387  0.74433988332748413 -0.50604963302612305
-0.37653484940528870  0.71331036090850830 -0.59110903739929199
-0.52427953481674194 -0.51070189476013184 -0.68140625953674316
-0.81117588281631470 -0.21719843149185181  0.54297196865081787
# End: Data Text
# End: Segment
