# OOMMF: rectangular mesh v1.0
# Segment count: 1
# Begin: Segment
# Begin: Header
# Title: /home/arne/wd/les/ingenieursproject/oommf/test.field0000-pass01623.omf
# Desc: Field Index: 0
# Desc: Applied field (T): 0 0 0
# Desc: Iteration: 1623
# Desc: Time (s): 9.184200135885099e-9
# Desc: |m x h|: 9.6355219620542264e-06
# Desc: User Comment:
# meshtype: rectangular
# meshunit: m
# xbase: 1e-08
# ybase: 1e-08
# zbase: 1e-08
# xstepsize: 2e-08
# ystepsize: 2e-08
# zstepsize: 2e-08
# xnodes: 100
# ynodes: 25
# znodes: 1
# xmin: 0
# ymin: 0
# zmin: 0
# xmax: 2e-06
# ymax: 5e-07
# zmax: 2e-08
# valueunit: A/m
# valuemultiplier: 800000
# ValueRangeMinMag: 1e-08
# ValueRangeMaxMag: 1
# End: Header
# Begin: Data Text
-0.70617020130157471 -0.70804208517074585 -1.3361133033296113e-10
-0.82129293680191040 -0.57050669193267822 -1.6229712018756004e-10
-0.87692624330520630 -0.48062494397163391 -2.0784231280490673e-10
-0.90617030858993530 -0.42291295528411865 -2.3809509919203720e-10
-0.92283457517623901 -0.38519650697708130 -2.4095050954464625e-10
-0.93299883604049683 -0.35987943410873413 -2.0097269681773611e-10
-0.93996644020080566 -0.34126681089401245 -7.2478176238455205e-11
-0.94655662775039673 -0.32253760099411011  2.6860905166792293e-10
-0.95654129981994629 -0.29159691929817200  1.0302630970571158e-09
-0.97342044115066528 -0.22902548313140869  2.0646770959587002e-09
-0.99184650182723999 -0.12743841111660004  1.9573089815594358e-09
-0.99952036142349243 -0.030968200415372849  1.1866395366322280e-10
-0.99984961748123169  0.017342444509267807 -1.2096448287479689e-09
-0.99957585334777832  0.029122898355126381 -1.5021617283395017e-09
-0.99964964389801025  0.026469625532627106 -1.4069437836994325e-09
-0.99979239702224731  0.020374640822410583 -1.2650112068968156e-09
-0.99989479780197144  0.014506115578114986 -1.1525695953196191e-09
-0.99995243549346924  0.0097549827769398689 -1.0733094413239996e-09
-0.99998104572296143  0.0061603663489222527 -1.0208661693766885e-09
-0.99999368190765381  0.0035470644943416119 -9.9028651945332058e-10
-0.99999850988388062  0.0017131437780335546 -9.7853636304989777e-10
-0.99999988079071045  0.00047827232629060745 -9.8361851996742189e-10
-0.99999994039535522 -0.00030770915327593684 -1.0039316045151736e-09
-0.99999970197677612 -0.00076625810470432043 -1.0379604953314470e-09
-0.99999952316284180 -0.00099348509684205055 -1.0842136077826581e-09
-0.99999946355819702 -0.0010635638609528542 -1.1412832900958847e-09
-0.99999946355819702 -0.0010320012224838138 -1.2079472977433170e-09
-0.99999958276748657 -0.00093882257351651788 -1.2832684914698689e-09
-0.99999964237213135 -0.00081164715811610222 -1.3666481279983600e-09
-0.99999976158142090 -0.00066854752367362380 -1.4578400708842310e-09
-0.99999988079071045 -0.00052057072753086686 -1.5569181499586193e-09
-0.99999994039535522 -0.00037383515154942870 -1.6642374145448002e-09
-1.0000000000000000 -0.00023117703676689416 -1.7803790663961649e-09
-1.0000000000000000 -9.3371418188326061e-05 -1.9060948375226872e-09
-1.0000000000000000  4.0011895180214196e-05 -2.0422570301548149e-09
-1.0000000000000000  0.00017004300025291741 -2.1898280966325956e-09
-0.99999994039535522  0.00029808320687152445 -2.3498241130681663e-09
-0.99999988079071045  0.00042558737914077938 -2.5232871347924402e-09
-0.99999982118606567  0.00055400741985067725 -2.7112674327867126e-09
-0.99999976158142090  0.00068475818261504173 -2.9148137237200444e-09
-0.99999964237213135  0.00081922061508521438 -3.1349969287219892e-09
-0.99999952316284180  0.00095876673003658652 -3.3729741222288112e-09
-0.99999940395355225  0.0011047966545447707 -3.6301459616083775e-09
-0.99999922513961792  0.0012587859528139234 -3.9084540048861527e-09
-0.99999898672103882  0.0014223442412912846 -4.2109071785034757e-09
-0.99999874830245972  0.0015972914407029748 -4.5424433103846695e-09
-0.99999839067459106  0.0017857603961601853 -4.9112784950011701e-09
-0.99999803304672241  0.0019903418142348528 -5.3309268110979247e-09
-0.99999755620956421  0.0022142906673252583 -5.8230948951631945e-09
-0.99999696016311646  0.0024618210736662149 -6.4216760797819461e-09
-0.99999624490737915  0.0027385193388909101 -7.1779857613307740e-09
-0.99999535083770752  0.0030519124120473862 -8.1672411056388228e-09
-0.99999415874481201  0.0034122199285775423 -9.4959071716971266e-09
-0.99999266862869263  0.0038333018310368061 -1.1308798342213322e-08
-0.99999058246612549  0.0043337629176676273 -1.3793560960095874e-08
-0.99998778104782104  0.0049380823038518429 -1.7178164668507634e-08
-0.99998390674591064  0.0056774634867906570 -2.1714312126164259e-08
-0.99997830390930176  0.0065898671746253967 -2.7636863464408634e-08
-0.99997019767761230  0.0077183647081255913 -3.5088586258780197e-08
-0.99995851516723633  0.0091067058965563774 -4.4004647037354516e-08
-0.99994176626205444  0.010791008360683918 -5.3968118862712799e-08
-0.99991822242736816  0.012787159532308578 -6.4078967909608764e-08
-0.99988639354705811  0.015075117349624634 -7.2915973703402415e-08
-0.99984538555145264  0.017583753913640976 -7.8684770699055662e-08
-0.99979633092880249  0.020181966945528984 -7.9594983048991708e-08
-0.99974274635314941  0.022681735455989838 -7.4384480797107244e-08
-0.99969106912612915  0.024854956194758415 -6.2773644060598599e-08
-0.99964988231658936  0.026459451764822006 -4.5608793186602270e-08
-0.99962824583053589  0.027263820171356201 -2.4602664794315388e-08
-0.99963378906250000  0.027059953659772873 -1.8084103103888083e-09
-0.99967080354690552  0.025655902922153473  2.0904433739588058e-08
-0.99973899126052856  0.022846905514597893  4.2146883316718231e-08
-0.99983137845993042  0.018363513052463531  6.0988341488155129e-08
-0.99993050098419189  0.011788673698902130  7.6600990439601446e-08
-0.99999707937240601  0.0024139874149113894  8.7444746554865560e-08
-0.99993890523910522 -0.011053462512791157  8.9971656791476562e-08
-0.99951320886611938 -0.031199423596262932  7.8818075621711614e-08
-0.99795520305633545 -0.063916802406311035  6.1133810902447294e-08
-0.99214208126068115 -0.12511654198169708  2.9629657660734665e-07
-0.96431988477706909 -0.26473981142044067  1.8127212797480752e-06
-0.74961709976196289 -0.66187173128128052  1.9496701497700997e-05
 0.15523654222488403 -0.98787730932235718  3.8632249925285578e-05
 0.85903978347778320 -0.51190876960754395  8.9246659626951441e-06
 0.97531998157501221 -0.22079609334468842  3.8181445916052326e-07
 0.99308854341506958 -0.11736733466386795 -2.0105633780076460e-07
 0.99804133176803589 -0.062557868659496307 -2.6794131713359093e-07
 0.99980133771896362 -0.019931988790631294 -2.0333318673237954e-07
 0.99973571300506592  0.022989438846707344 -1.5923551188734564e-07
 0.99772685766220093  0.067387625575065613 -1.2926969361615193e-07
 0.99401801824569702  0.10921612381935120 -1.0424474083947644e-07
 0.98942983150482178  0.14501233398914337 -8.0004717517567769e-08
 0.98472458124160767  0.17411924898624420 -5.9045497380338929e-08
 0.98021531105041504  0.19793416559696198 -4.4051109426845869e-08
 0.97573798894882202  0.21894139051437378 -3.5160489630925440e-08
 0.97064030170440674  0.24053560197353363 -3.1000322309182593e-08
 0.96346992254257202  0.26781660318374634 -3.0419979424323174e-08
 0.95064872503280640  0.31026917695999146 -3.3968422741281756e-08
 0.92105525732040405  0.38943189382553101 -4.4741408800064164e-08
 0.82813924551010132  0.56052237749099731 -8.4255518117970496e-08
 0.51997858285903931  0.85417926311492920 -1.7526383544463897e-07
-0.56498932838439941 -0.82509821653366089 -1.0919289084032613e-10
-0.70208525657653809 -0.71209287643432617 -1.3431261658425342e-10
-0.78207474946975708 -0.62318462133407593 -1.7999056411976966e-10
-0.82746982574462891 -0.56151014566421509 -2.0227038100006922e-10
-0.85444313287734985 -0.51954489946365356 -1.8529884571183430e-10
-0.87141454219818115 -0.49054729938507080 -1.0672004946421509e-10
-0.88375049829483032 -0.46795839071273804  9.1119237155545818e-11
-0.89678788185119629 -0.44246065616607666  5.4861243325987630e-10
-0.91775190830230713 -0.39715409278869629  1.5001111464130190e-09
-0.95237827301025391 -0.30491912364959717  2.8213018588019168e-09
-0.98788571357727051 -0.15518309175968170  2.5863771124789992e-09
-0.99980115890502930 -0.019940230995416641 -2.7213745146248414e-11
-0.99917727708816528  0.040556121617555618 -1.5607124481675783e-09
-0.99867779016494751  0.051406659185886383 -1.8091819153909228e-09
-0.99902504682540894  0.044147480279207230 -1.6538173053248784e-09
-0.99944454431533813  0.033326055854558945 -1.4607506315655883e-09
-0.99972093105316162  0.023623622953891754 -1.3094587636430788e-09
-0.99987179040908813  0.016010902822017670 -1.2019433226484466e-09
-0.99994635581970215  0.010356224142014980 -1.1290108847816782e-09
-0.99998021125793457  0.0062915291637182236 -1.0834416697136362e-09
-0.99999403953552246  0.0034554563462734222 -1.0606160394388553e-09
-0.99999880790710449  0.0015454993117600679 -1.0573747433184622e-09
-0.99999994039535522  0.00031939728069119155 -1.0711510567418259e-09
-0.99999994039535522 -0.00041356688598170877 -1.0995553356707433e-09
-0.99999970197677612 -0.00080129818525165319 -1.1402836452845122e-09
-0.99999952316284180 -0.00095615023747086525 -1.1911971409261923e-09
-0.99999952316284180 -0.00096110330196097493 -1.2504758339915156e-09
-0.99999964237213135 -0.00087530602468177676 -1.3167431589522494e-09
-0.99999970197677612 -0.00073914084350690246 -1.3891456873693642e-09
-0.99999982118606567 -0.00057876465143635869 -1.4673647852347926e-09
-0.99999994039535522 -0.00041000847704708576 -1.5515909668195604e-09
-1.0000000000000000 -0.00024155883875209838 -1.6424511750656734e-09
-1.0000000000000000 -7.7413082181010395e-05 -1.7409297337067642e-09
-1.0000000000000000  8.1326928921043873e-05 -1.8482907426786710e-09
-1.0000000000000000  0.00023521657567471266 -1.9660104655372379e-09
-0.99999994039535522  0.00038566364673897624 -2.0956909541069990e-09
-0.99999988079071045  0.00053444097284227610 -2.2389969878133797e-09
-0.99999976158142090  0.00068341713631525636 -2.3975941232379228e-09
-0.99999964237213135  0.00083442940376698971 -2.5730853003835819e-09
-0.99999952316284180  0.00098924315534532070 -2.7669651014861074e-09
-0.99999934434890747  0.0011495617218315601 -2.9805966583751342e-09
-0.99999910593032837  0.0013170621823519468 -3.2152458473433398e-09
-0.99999886751174927  0.0014934474602341652 -3.4722107411511161e-09
-0.99999856948852539  0.0016805090708658099 -3.7531231456000569e-09
-0.99999821186065674  0.0018802034901455045 -4.0605172557661717e-09
-0.99999779462814331  0.0020947521552443504 -4.3988039877262963e-09
-0.99999731779098511  0.0023267758078873158 -4.7758428323163571e-09
-0.99999666213989258  0.0025794887915253639 -5.2053410470875860e-09
-0.99999594688415527  0.0028569791465997696 -5.7103584083506576e-09
-0.99999499320983887  0.0031646147835999727 -6.3282117324092724e-09
-0.99999386072158813  0.0035096264909952879 -7.1170331850112234e-09
-0.99999237060546875  0.0039019181858748198 -8.1640711968589130e-09
-0.99999052286148071  0.0043551619164645672 -9.5953787138114421e-09
-0.99998807907104492  0.0048882034607231617 -1.1585694181803774e-08
-0.99998474121093750  0.0055267428979277611 -1.4365795664161851e-08
-0.99998015165328979  0.0063051213510334492 -1.8222028330683315e-08
-0.99997359514236450  0.0072678029537200928 -2.3479104882540014e-08
-0.99996411800384521  0.0084697706624865532 -3.0453261246066177e-08
-0.99995023012161255  0.0099745737388730049 -3.9360742221106193e-08
-0.99992978572845459  0.011848324909806252 -5.0171632182127723e-08
-0.99989992380142212  0.014147886075079441 -6.2419097446309024e-08
-0.99985712766647339  0.016902353614568710 -7.5014568778897228e-08
-0.99979817867279053  0.020089330151677132 -8.6171709767768334e-08
-0.99972122907638550  0.023611217737197876 -9.3569077819211088e-08
-0.99962782859802246  0.027280237525701523 -9.4824841312401986e-08
-0.99952489137649536  0.030821220949292183 -8.8190766689422162e-08
-0.99942535161972046  0.033895608037710190 -7.3176678938580153e-08
-0.99934673309326172  0.036139868199825287 -5.0764814574222328e-08
-0.99930775165557861  0.037202265113592148 -2.3068693622008141e-08
-0.99932414293289185  0.036759752780199051  7.3891985863383525e-09
-0.99940460920333862  0.034502170979976654  3.8418129122419487e-08
-0.99954754114151001  0.030077587813138962  6.8622554749708797e-08
-0.99973565340042114  0.022990703582763672  9.7505171936518309e-08
-0.99992281198501587  0.012425577268004417  1.2530932735899114e-07
-0.99999517202377319 -0.0030983386095613241  1.5316064150283637e-07
-0.99964869022369385 -0.026504401117563248  1.8640584187323839e-07
-0.99793636798858643 -0.064210668206214905  2.5776819256861927e-07
-0.99122959375381470 -0.13215115666389465  5.7938956388170482e-07
-0.96151196956634521 -0.27476298809051514  1.7802034335545613e-06
-0.79166638851165771 -0.61095362901687622  9.3880362328491174e-06
-0.32053384184837341 -0.94723707437515259  5.9038475228589959e-06
 0.040076907724142075 -0.99919658899307251 -1.1092500074028067e-07
 0.45063850283622742 -0.89270651340484619  8.5897818280500360e-06
 0.85843443870544434 -0.51292330026626587  5.0902267503261101e-06
 0.96810150146484375 -0.25055840611457825  5.1574107828855631e-07
 0.99130427837371826 -0.13158948719501495 -3.0120869354277602e-08
 0.99861419200897217 -0.052627608180046082 -1.6204025143906620e-07
 0.99979341030120850  0.020324401557445526 -1.5310895662423718e-07
 0.99559777975082397  0.093728579580783844 -1.3684098121302668e-07
 0.98707360029220581  0.16026751697063446 -1.1243410824590683e-07
 0.97665601968765259  0.21480928361415863 -8.3310375487144483e-08
 0.96611469984054565  0.25811305642127991 -5.8757759546779198e-08
 0.95577287673950195  0.29410567879676819 -4.3509047031875525e-08
 0.94461339712142944  0.32818514108657837 -3.6841171890955593e-08
 0.92998147010803223  0.36760640144348145 -3.6926266488990223e-08
 0.90578633546829224  0.42373472452163696 -4.3543256111888695e-08
 0.85596394538879395  0.51703548431396484 -5.9616219516556157e-08
 0.73425668478012085  0.67887192964553833 -9.3739927820024604e-08
 0.47878730297088623  0.87793093919754028 -9.6032273688706482e-08
 0.22593142092227936  0.97414320707321167 -4.8844739808373561e-08
-0.46710067987442017 -0.88420414924621582 -1.0130583177891950e-10
-0.60049510002136230 -0.79962843656539917 -1.2477045785441732e-10
-0.68888872861862183 -0.72486710548400879 -1.5496250116431298e-10
-0.74381244182586670 -0.66838842630386353 -1.4682736970694776e-10
-0.77845656871795654 -0.62769848108291626 -7.7342243720579518e-11
-0.80176180601119995 -0.59764373302459717  8.5622432755005917e-11
-0.82082700729370117 -0.57117688655853271  4.1028430652900738e-10
-0.84358131885528564 -0.53700149059295654  1.0449390241973333e-09
-0.88015425205230713 -0.47468781471252441  2.2462376403353801e-09
-0.93621724843978882 -0.35142180323600769  3.8428940030144076e-09
-0.98743093013763428 -0.15805095434188843  3.1623059726371139e-09
-0.99999707937240601  0.0024164142087101936 -2.9554175773327529e-10
-0.99776232242584229  0.066860504448413849 -1.9823165331445125e-09
-0.99719375371932983  0.074863702058792114 -2.2335113758487068e-09
-0.99802464246749878  0.062823772430419922 -2.0364083752610895e-09
-0.99888402223587036  0.047230143100023270 -1.7807004759617939e-09
-0.99943614006042480  0.033576998859643936 -1.5695459376630083e-09
-0.99973607063293457  0.022972401231527328 -1.4140864035283585e-09
-0.99988520145416260  0.015150687657296658 -1.3056810077571868e-09
-0.99995434284210205  0.0095562832430005074 -1.2356112799594143e-09
-0.99998396635055542  0.0056618736125528812 -1.1979633951497703e-09
-0.99999541044235229  0.0030347998254001141 -1.1887484330230791e-09
-0.99999910593032837  0.0013345296029001474 -1.2048587683111123e-09
-0.99999994039535522  0.00029710464878007770 -1.2434897556090618e-09
-0.99999994039535522 -0.00027942049200646579 -1.3019616496023900e-09
-0.99999982118606567 -0.00054664950584992766 -1.3777852192475848e-09
-0.99999982118606567 -0.00061539333546534181 -1.4687975280480714e-09
-0.99999982118606567 -0.00056390283862128854 -1.5732960489955872e-09
-0.99999988079071045 -0.00044514556066133082 -1.6900896238070118e-09
-0.99999994039535522 -0.00029315779102034867 -1.8184904693185899e-09
-1.0000000000000000 -0.00012839313421864063 -1.9582429011677505e-09
-1.0000000000000000  3.7986559618730098e-05 -2.1094350710626486e-09
-1.0000000000000000  0.00020084406423848122 -2.2724049308919803e-09
-0.99999994039535522  0.00035871082218363881 -2.4476511928384070e-09
-0.99999988079071045  0.00051218079170212150 -2.6357498406071045e-09
-0.99999976158142090  0.00066288036759942770 -2.8373150495752952e-09
-0.99999964237213135  0.00081285380292683840 -3.0529447858640424e-09
-0.99999952316284180  0.00096423085778951645 -3.2831826146662024e-09
-0.99999934434890747  0.0011190748773515224 -3.5284779542621436e-09
-0.99999916553497314  0.0012793386122211814 -3.7891587645333402e-09
-0.99999892711639404  0.0014468806330114603 -4.0654204447321263e-09
-0.99999868869781494  0.0016235121292993426 -4.3573731289825446e-09
-0.99999833106994629  0.0018110611708834767 -4.6652024465743125e-09
-0.99999797344207764  0.0020114472135901451 -4.9895194642601837e-09
-0.99999749660491943  0.0022267713211476803 -5.3320357018549203e-09
-0.99999696016311646  0.0024594329297542572 -5.6967404127306054e-09
-0.99999630451202393  0.0027122891042381525 -6.0918265987197628e-09
-0.99999552965164185  0.0029888879507780075 -6.5326735132487102e-09
-0.99999457597732544  0.0032938106451183558 -7.0462715662245046e-09
-0.99999338388442993  0.0036331769078969955 -7.6775092949787904e-09
-0.99999195337295532  0.0040153772570192814 -8.4976923275803529e-09
-0.99999010562896729  0.0044521098025143147 -9.6154684214866393e-09
-0.99998772144317627  0.0049597960896790028 -1.1189851711890242e-08
-0.99998456239700317  0.0055614272132515907 -1.3443959723247190e-08
-0.99998021125793457  0.0062888148240745068 -1.6676064973353277e-08
-0.99997419118881226  0.0071850474923849106 -2.1261335803046677e-08
-0.99996548891067505  0.0083066504448652267 -2.7632784949105371e-08
-0.99995273351669312  0.0097244586795568466 -3.6224367505610644e-08
-0.99993360042572021  0.011521568521857262 -4.7355634080759046e-08
-0.99990499019622803  0.013786074705421925 -6.1042619847739843e-08
-0.99986225366592407  0.016596142202615738 -7.6743994270600524e-08
-0.99980008602142334  0.019995957612991333 -9.3103935228100454e-08
-0.99971282482147217  0.023964086547493935 -1.0782493831129614e-07
-0.99959719181060791  0.028380811214447021 -1.1784842257611672e-07
-0.99945515394210815  0.033005975186824799 -1.1995807369657996e-07
-0.99929738044738770  0.037479855120182037 -1.1170307345764741e-07
-0.99914461374282837  0.041352521628141403 -9.2261082329514466e-08
-0.99902564287185669  0.044133044779300690 -6.2763788832853606e-08
-0.99897176027297974  0.045336365699768066 -2.5856373042643099e-08
-0.99900931119918823  0.044501271098852158  1.5297482391929407e-08
-0.99915260076522827  0.041158534586429596  5.8085824150566623e-08
-0.99939662218093872  0.034733597189188004  1.0121593163603393e-07
-0.99970334768295288  0.024356123059988022  1.4519018520786631e-07
-0.99996393918991089  0.0084932809695601463  1.9316586019613169e-07
-0.99987453222274780 -0.015842042863368988  2.5582417606528907e-07
-0.99848401546478271 -0.055042382329702377  3.7562071497632132e-07
-0.99225622415542603 -0.12420804798603058  7.4925065973729943e-07
-0.96517831087112427 -0.26159274578094482  2.0114200651732972e-06
-0.83562713861465454 -0.54929703474044800  6.8094209382252302e-06
-0.49748724699020386 -0.86747127771377563  5.1850538511644118e-06
-0.20085336267948151 -0.97962129116058350  1.0796557035064325e-06
 0.0077841170132160187 -0.99996972084045410  8.8751744442561176e-07
 0.22745439410209656 -0.97378873825073242  1.2528514616860775e-06
 0.55830305814743042 -0.82963705062866211  5.6573503570689354e-06
 0.86208969354629517 -0.50675570964813232  3.7516313113883371e-06
 0.96527433395385742 -0.26123842597007751  6.3841144992693444e-07
 0.99322974681854248 -0.11616680771112442  1.7766254245543678e-08
 0.99999177455902100  0.0040591973811388016 -1.3858333147709345e-07
 0.99276763200759888  0.12005160003900528 -1.6174431038962211e-07
 0.97580486536026001  0.21864333748817444 -1.3593840719750006e-07
 0.95556294918060303  0.29478719830513000 -9.4491149127406970e-08
 0.93513065576553345  0.35430306196212769 -6.3845348563518201e-08
 0.91374188661575317  0.40629523992538452 -5.0191719225267661e-08
 0.88726407289505005  0.46126186847686768 -5.0476945290256481e-08
 0.84645295143127441  0.53246349096298218 -6.2528776823000953e-08
 0.77108436822891235  0.63673293590545654 -8.8402700271217327e-08
 0.62500649690628052  0.78061956167221069 -1.1965808255354204e-07
 0.40522977709770203  0.91421484947204590 -1.0147291362727628e-07
 0.21240934729576111  0.97718077898025513 -5.1314991367235052e-08
 0.10303560644388199  0.99467766284942627 -3.2275586647756427e-08
-0.39627313613891602 -0.91813266277313232 -6.5756955436313547e-11
-0.51896828413009644 -0.85479348897933960 -7.0575552346685555e-11
-0.60576206445693970 -0.79564583301544189 -5.8506810507452656e-11
-0.66374856233596802 -0.74795579910278320  9.0274029571069114e-12
-0.70320886373519897 -0.71098333597183228  1.5703321976090479e-10
-0.73273873329162598 -0.68051010370254517  4.1804573691628377e-10
-0.76056259870529175 -0.64926457405090332  8.5498191859656458e-10
-0.79640686511993408 -0.60476118326187134  1.6188035356634600e-09
-0.85183632373809814 -0.52380806207656860  3.0139404305629114e-09
-0.92962175607681274 -0.36851516366004944  4.7789425750011105e-09
-0.99037170410156250 -0.13843372464179993  3.3088600748243380e-09
-0.99950844049453735  0.031351696699857712 -6.7707367490399406e-10
-0.99567276239395142  0.092928729951381683 -2.3175625862847937e-09
-0.99526178836822510  0.097231619060039520 -2.5817619153656324e-09
-0.99671530723571777  0.080985173583030701 -2.3858655051611777e-09
-0.99813026189804077  0.061122272163629532 -2.0959423085997742e-09
-0.99904227256774902  0.043754812330007553 -1.8392484202323089e-09
-0.99954277276992798  0.030235756188631058 -1.6433032712370732e-09
-0.99979478120803833  0.020259056240320206 -1.5034222755616611e-09
-0.99991387128829956  0.013126020319759846 -1.4096658285112085e-09
-0.99996674060821533  0.0081593049690127373 -1.3537306831068463e-09
-0.99998849630355835  0.0048002819530665874 -1.3292830169930880e-09
-0.99999660253524780  0.0026105307042598724 -1.3310976765268379e-09
-0.99999922513961792  0.0012524783378466964 -1.3544512178498280e-09
-0.99999988079071045  0.00046993166324682534 -1.3949538191226907e-09
-1.0000000000000000  7.2143106081057340e-05 -1.4486515320655258e-09
-1.0000000000000000 -7.9206249210983515e-05 -1.5122375573994873e-09
-1.0000000000000000 -8.1065802078228444e-05 -1.5832232191925755e-09
-1.0000000000000000  1.3942228633823106e-06 -1.6600487651174944e-09
-1.0000000000000000  0.00012655845785047859 -1.7420792586264611e-09
-0.99999994039535522  0.00026954978238791227 -1.8295301940085551e-09
-0.99999994039535522  0.00041683178278617561 -1.9233463710577325e-09
-0.99999982118606567  0.00056214805226773024 -2.0250503496299643e-09
-0.99999976158142090  0.00070362439146265388 -2.1366064473227198e-09
-0.99999964237213135  0.00084181479178369045 -2.2602879568012213e-09
-0.99999952316284180  0.00097846146672964096 -2.3985367025858295e-09
-0.99999940395355225  0.0011157648405060172 -2.5538349213150013e-09
-0.99999922513961792  0.0012559947790578008 -2.7285715908931252e-09
-0.99999904632568359  0.0014013177715241909 -2.9249120903074299e-09
-0.99999880790710449  0.0015537510626018047 -3.1446720782923876e-09
-0.99999850988388062  0.0017151852371171117 -3.3892255668632743e-09
-0.99999821186065674  0.0018874410307034850 -3.6594740571160855e-09
-0.99999785423278809  0.0020723433699458838 -3.9559480136119873e-09
-0.99999743700027466  0.0022718051914125681 -4.2791525878271841e-09
-0.99999690055847168  0.0024879272095859051 -4.6302992551261468e-09
-0.99999630451202393  0.0027231273707002401 -5.0126560680041621e-09
-0.99999552965164185  0.0029803200159221888 -5.4338027410949508e-09
-0.99999469518661499  0.0032631789799779654 -5.9091957993473443e-09
-0.99999362230300903  0.0035765338689088821 -6.4674927635621771e-09
-0.99999231100082397  0.0039269593544304371 -7.1581753857685726e-09
-0.99999064207077026  0.0043236417695879936 -8.0619644293733472e-09
-0.99998855590820312  0.0047796163707971573 -9.3043190929620323e-09
-0.99998587369918823  0.0053134798072278500 -1.1071700001252793e-08
-0.99998229742050171  0.0059516434557735920 -1.3629064099518473e-08
-0.99997735023498535  0.0067311180755496025 -1.7334691904125066e-08
-0.99997031688690186  0.0077026169747114182 -2.2644536912252988e-08
-0.99996012449264526  0.0089333970099687576 -3.0092405012283052e-08
-0.99994480609893799  0.010508678853511810 -4.0225334174692762e-08
-0.99992150068283081  0.012529667466878891 -5.3468497185349406e-08
-0.99988591670989990  0.015105368569493294 -6.9898732135698083e-08
-0.99983191490173340  0.018335035070776939 -8.8932871733504726e-08
-0.99975180625915527  0.022279111668467522 -1.0899883307047276e-07
-0.99963760375976562  0.026920026168227196 -1.2734730603369826e-07
-0.99948400259017944  0.032120291143655777 -1.4022755578935175e-07
-0.99929314851760864  0.037591978907585144 -1.4359159195009852e-07
-0.99907964468002319  0.042893663048744202 -1.3423033351500635e-07
-0.99887299537658691  0.047462660819292068 -1.1088324214370004e-07
-0.99871534109115601  0.050672624260187149 -7.4700693630802562e-08
-0.99865293502807617  0.051887638866901398 -2.8721569123035806e-08
-0.99872529506683350  0.050476115196943283  2.3412415117718410e-08
-0.99895286560058594  0.045750997960567474  7.8931584823749290e-08
-0.99932259321212769  0.036801513284444809  1.3723096969897597e-07
-0.99975478649139404  0.022145109251141548  2.0133371947395062e-07
-0.99999946355819702 -0.0010078117484226823  2.8284674158385315e-07
-0.99925994873046875 -0.038464613258838654  4.2173172687398619e-07
-0.99463230371475220 -0.10347266495227814  7.8286262805704609e-07
-0.97379016876220703 -0.22744835913181305  1.8701264252740657e-06
-0.88061708211898804 -0.47382864356040955  5.2478771976893768e-06
-0.62471383810043335 -0.78085374832153320  5.3165877034189180e-06
-0.35342979431152344 -0.93546104431152344  1.8792829905578401e-06
-0.17177817225456238 -0.98513567447662354  8.0154751458394458e-07
-0.030965464189648628 -0.99952048063278198  4.3827367335325107e-07
 0.11597036570310593 -0.99325269460678101  7.7625799121960881e-07
 0.31731599569320679 -0.94831985235214233  1.7523517499284935e-06
 0.61619740724563599 -0.78759175539016724  4.3450468183436897e-06
 0.87181556224822998 -0.48983427882194519  2.7039750420954078e-06
 0.97194325923919678 -0.23521536588668823  5.4631647117275861e-07
 0.99938035011291504 -0.035197585821151733 -2.5857039176457874e-08
 0.98837739229202271  0.15202005207538605 -1.9307205434415664e-07
 0.95562016963958740  0.29460152983665466 -1.6488631615629856e-07
 0.91816651821136475  0.39619469642639160 -1.0146086992790515e-07
 0.87953978776931763  0.47582530975341797 -6.9147617409726081e-08
 0.83456480503082275  0.55090981721878052 -6.7195152553267690e-08
 0.77099698781967163  0.63683879375457764 -8.5557623208387668e-08
 0.66827774047851562  0.74391186237335205 -1.1769477481493595e-07
 0.50968521833419800  0.86036092042922974 -1.3505457729934278e-07
 0.32540965080261230  0.94557315111160278 -1.0308217213150783e-07
 0.18156851828098297  0.98337829113006592 -6.0231755583117774e-08
 0.094231180846691132  0.99555033445358276 -3.7638400840478425e-08
 0.045229263603687286  0.99897664785385132 -2.8055481493538537e-08
-0.34120407700538635 -0.93998920917510986  2.9180664828931668e-11
-0.45162802934646606 -0.89220631122589111  6.1772774395674190e-11
-0.53312069177627563 -0.84603917598724365  1.3943707299901575e-10
-0.59117168188095093 -0.80654573440551758  2.8101099225352755e-10
-0.63442641496658325 -0.77298325300216675  5.0558862652039238e-10
-0.67105674743652344 -0.74140602350234985  8.3785145488235457e-10
-0.70974147319793701 -0.70446223020553589  1.3371577178844518e-09
-0.76102930307388306 -0.64871752262115479  2.1858339582792041e-09
-0.83669006824493408 -0.54767668247222900  3.7676310959966486e-09
-0.93347930908203125 -0.35863131284713745  5.5675291044110509e-09
-0.99478226900100708 -0.10202056914567947  2.9798168377226375e-09
-0.99805599451065063  0.062323741614818573 -1.0661792559929495e-09
-0.99313426017761230  0.11698009818792343 -2.5432236316902390e-09
-0.99306476116180420  0.11756873130798340 -2.8240862981476766e-09
-0.99518752098083496  0.097988583147525787 -2.6517381623847314e-09
-0.99721550941467285  0.074573658406734467 -2.3402106918979371e-09
-0.99854725599288940  0.053882703185081482 -2.0367403319454525e-09
-0.99929213523864746  0.037620153278112411 -1.7918952988082992e-09
-0.99967348575592041  0.025551510974764824 -1.6114928280686058e-09
-0.99985724687576294  0.016897840425372124 -1.4885057630920073e-09
-0.99994105100631714  0.010859581641852856 -1.4149523774875661e-09
-0.99997711181640625  0.0067627453245222569 -1.3842920143503079e-09
-0.99999171495437622  0.0040746140293776989 -1.3911080065653891e-09
-0.99999713897705078  0.0023851366713643074 -1.4305783224699553e-09
-0.99999904632568359  0.0013843444176018238 -1.4982524110251916e-09
-0.99999964237213135  0.00084272876847535372 -1.5901104877258376e-09
-0.99999982118606567  0.00059487367980182171 -1.7027246279610608e-09
-0.99999988079071045  0.00052553933346644044 -1.8334037621414723e-09
-0.99999982118606567  0.00055770383914932609 -1.9802244288769089e-09
-0.99999982118606567  0.00064243387896567583 -2.1419777063158563e-09
-0.99999970197677612  0.00075059081427752972 -2.3180406483191973e-09
-0.99999964237213135  0.00086633797036483884 -2.5082278476418196e-09
-0.99999952316284180  0.00098230445291846991 -2.7126443313818527e-09
-0.99999940395355225  0.0010961678344756365 -2.9315510019500834e-09
-0.99999928474426270  0.0012083693873137236 -3.1652613863286660e-09